 Gaussian 16, Revision A.03,
 Gaussian 16:  ES64L-G16RevA.03 25-Dec-2016

 ---------------
 #p M052X/6-31G*
 ---------------

 -------------------
 Title Card Required
 -------------------
 Symbolic Z-matrix:
 Charge =  0 Multiplicity = 1

                         Standard orientation:
 ---------------------------------------------------------------------
 Center     Atomic      Atomic             Coordinates (Angstroms)
 Number     Number       Type             X           Y           Z
 ---------------------------------------------------------------------
      1          6           0        2.935489    0.270469   -0.638646
      2          6           0        2.224705    1.406727   -0.435635
      3          6           0        1.267056   -0.204669    0.731340
      4          7           0        2.329207   -0.721103    0.114038
      5          1           0        3.812515    0.083437   -1.231582
      6          1           0        2.364946    2.400912   -0.819892
      7          1           0        0.514034   -0.728697    1.310609
      8          6           0        2.601309   -2.151603    0.030928
      9          1           0        2.258222   -2.630241    0.944775
     10          1           0        2.059265   -2.569119   -0.817194
     11          1           0        3.672063   -2.309274   -0.081496
     12          7           0        1.194995    1.092672    0.434203
     13          6           0        0.048512    1.964448    0.739231
     14          1           0        0.460802    2.951592    0.947105
     15          1           0       -0.415090    1.578285    1.644192
     16          6           0       -0.961557    2.027294   -0.423939
     17          1           0       -1.339578    3.052380   -0.475294
     18          1           0       -0.429210    1.840221   -1.358198
     19          6           0       -2.164584    1.088802   -0.335097
     20          1           0       -2.733240    1.130923   -1.263476
     21          1           0       -2.828611    1.357583    0.487288
     22         16           0       -1.763075   -0.668398   -0.072619
     23          8           0       -2.966577   -1.404250   -0.424866
     24          8           0       -0.585228   -0.921395   -0.940215
     25          8           0       -1.393436   -0.733533    1.368617
 ---------------------------------------------------------------------

 SCF Done:  E(RM052X) =  -1007.16191623     A.U. after   15 cycles

 The electronic state is 1-A.
 Alpha  occ. eigenvalues --  -90.18975 -19.60621 -19.60540 -19.59803 -14.91767
 Alpha  occ. eigenvalues --  -14.91265 -10.69139 -10.66051 -10.65889 -10.64997
 Alpha  occ. eigenvalues --  -10.64650 -10.59350 -10.57283  -8.39627  -6.32251
 Alpha  occ. eigenvalues --   -6.32241  -6.32180  -1.22095  -1.18569  -1.09422
 Alpha  occ. eigenvalues --   -1.04009  -1.03320  -0.94369  -0.91399  -0.87492
 Alpha  occ. eigenvalues --   -0.82224  -0.76387  -0.73616  -0.71610  -0.66568
 Alpha  occ. eigenvalues --   -0.61805  -0.61090  -0.58984  -0.57297  -0.56828
 Alpha  occ. eigenvalues --   -0.55938  -0.54706  -0.52881  -0.52584  -0.51233
 Alpha  occ. eigenvalues --   -0.50568  -0.48410  -0.47602  -0.46657  -0.43879
 Alpha  occ. eigenvalues --   -0.42428  -0.38657  -0.36963  -0.35730  -0.33783
 Alpha  occ. eigenvalues --   -0.31951  -0.31579  -0.30298  -0.27942
 Alpha virt. eigenvalues --    0.02277   0.03539   0.11625   0.12451   0.13664
 Alpha virt. eigenvalues --    0.16053   0.16939   0.17276   0.17474   0.18051
 Alpha virt. eigenvalues --    0.19480   0.20490   0.20663   0.21328   0.22200

 Mulliken charges:
               1
     1  C    0.002108
     2  C   -0.006849
     3  C    0.323471
     4  N   -0.450314
     5  H    0.230920
     6  H    0.231049
     7  H    0.345145
     8  C   -0.367585
     9  H    0.225072
    10  H    0.255635
    11  H    0.200430
    12  N   -0.438113
    13  C   -0.227471
    14  H    0.194787
    15  H    0.252191
    16  C   -0.335911
    17  H    0.181176
    18  H    0.202890
    19  C   -0.538687
    20  H    0.216989
    21  H    0.209458
    22  S    1.229590
    23  O   -0.574068
    24  O   -0.672684
    25  O   -0.689227
 Sum of Mulliken charges =  -0.00000

 Dipole moment (field-independent basis, Debye):
    X=             10.7135    Y=              5.4420    Z=              0.1871  Tot=             12.0179
 Quadrupole moment (field-independent basis, Debye-Ang):
   XX=            -80.4072   YY=            -73.6393   ZZ=            -86.4449
   XY=            -16.8675   XZ=             -2.4264   YZ=             -2.1445

 Normal termination of Gaussian 16 at Wed Oct 11 16:10:57 2023.
