 Gaussian 16, Revision A.03,
 Gaussian 16:  ES64L-G16RevA.03 25-Dec-2016

 ----------------------------------------
 #p opt freq b3lyp/6-311+g(2d,p) em=gd3bj
 ----------------------------------------

 -------------------
 Title Card Required
 -------------------
 Symbolic Z-matrix:
 Charge =  0 Multiplicity = 1

 SCF Done:  E(RB3LYP) =  -1007.56088024     A.U. after   13 cycles
 SCF Done:  E(RB3LYP) =  -1007.53340465     A.U. after   12 cycles
 SCF Done:  E(RB3LYP) =  -1007.55992967     A.U. after   11 cycles
 SCF Done:  E(RB3LYP) =  -1007.56089169     A.U. after    7 cycles
 SCF Done:  E(RB3LYP) =  -1007.56041173     A.U. after   11 cycles
 SCF Done:  E(RB3LYP) =  -1007.56084545     A.U. after   11 cycles
 SCF Done:  E(RB3LYP) =  -1007.56093373     A.U. after    7 cycles
 SCF Done:  E(RB3LYP) =  -1007.56094380     A.U. after    9 cycles
 SCF Done:  E(RB3LYP) =  -1007.56095627     A.U. after    9 cycles
 SCF Done:  E(RB3LYP) =  -1007.56095868     A.U. after    8 cycles
 SCF Done:  E(RB3LYP) =  -1007.56095913     A.U. after    8 cycles
 SCF Done:  E(RB3LYP) =  -1007.56095927     A.U. after    7 cycles
 SCF Done:  E(RB3LYP) =  -1007.56095943     A.U. after    7 cycles
 SCF Done:  E(RB3LYP) =  -1007.56095958     A.U. after    7 cycles
 SCF Done:  E(RB3LYP) =  -1007.56095974     A.U. after    7 cycles
 SCF Done:  E(RB3LYP) =  -1007.56095986     A.U. after    7 cycles
 SCF Done:  E(RB3LYP) =  -1007.56095993     A.U. after    7 cycles
 SCF Done:  E(RB3LYP) =  -1007.56095996     A.U. after    6 cycles
 SCF Done:  E(RB3LYP) =  -1007.56095999     A.U. after    6 cycles
 Optimization completed.
    -- Stationary point found.
 Normal termination of Gaussian 16 at Wed Oct 11 15:41:44 2023.

 ----------------------------------------------------------------------
 #P Geom=AllCheck Guess=TCheck SCRF=Check GenChk RB3LYP/6-311+G(2d,p) F
 req
 ----------------------------------------------------------------------

 Structure from the checkpoint file:  "/data0/home/software/g16/scratch/Gau-2499920.chk"
 -------------------
 Title Card Required
 -------------------
 Charge =  0 Multiplicity = 1

                         Standard orientation:
 ---------------------------------------------------------------------
 Center     Atomic      Atomic             Coordinates (Angstroms)
 Number     Number       Type             X           Y           Z
 ---------------------------------------------------------------------
      1          6           0        2.935489    0.270469   -0.638646
      2          6           0        2.224705    1.406727   -0.435635
      3          6           0        1.267056   -0.204669    0.731340
      4          7           0        2.329207   -0.721103    0.114038
      5          1           0        3.812515    0.083437   -1.231582
      6          1           0        2.364946    2.400912   -0.819892
      7          1           0        0.514034   -0.728697    1.310609
      8          6           0        2.601309   -2.151603    0.030928
      9          1           0        2.258222   -2.630241    0.944775
     10          1           0        2.059265   -2.569119   -0.817194
     11          1           0        3.672063   -2.309274   -0.081496
     12          7           0        1.194995    1.092672    0.434203
     13          6           0        0.048512    1.964448    0.739231
     14          1           0        0.460802    2.951592    0.947105
     15          1           0       -0.415090    1.578285    1.644192
     16          6           0       -0.961557    2.027294   -0.423939
     17          1           0       -1.339578    3.052380   -0.475294
     18          1           0       -0.429210    1.840221   -1.358198
     19          6           0       -2.164584    1.088802   -0.335097
     20          1           0       -2.733240    1.130923   -1.263476
     21          1           0       -2.828611    1.357583    0.487288
     22         16           0       -1.763075   -0.668398   -0.072619
     23          8           0       -2.966577   -1.404250   -0.424866
     24          8           0       -0.585228   -0.921395   -0.940215
     25          8           0       -1.393436   -0.733533    1.368617
 ---------------------------------------------------------------------

 SCF Done:  E(RB3LYP) =  -1007.56095999     A.U. after    1 cycles

 The electronic state is 1-A.
 Alpha  occ. eigenvalues --  -88.99658 -19.05908 -19.05822 -19.05229 -14.42909
 Alpha  occ. eigenvalues --  -14.42389 -10.28468 -10.25611 -10.25482 -10.24916
 Alpha  occ. eigenvalues --  -10.24486 -10.19368 -10.17572  -8.05244  -6.01548
 Alpha  occ. eigenvalues --   -6.01517  -6.01483  -1.10170  -1.07581  -0.98492
 Alpha  occ. eigenvalues --   -0.94356  -0.93748  -0.84026  -0.81166  -0.77661
 Alpha  occ. eigenvalues --   -0.72827  -0.67737  -0.65146  -0.63202  -0.58699
 Alpha  occ. eigenvalues --   -0.54117  -0.53296  -0.51863  -0.50336  -0.49854
 Alpha  occ. eigenvalues --   -0.49048  -0.47876  -0.45995  -0.45613  -0.44619
 Alpha  occ. eigenvalues --   -0.43798  -0.41723  -0.41065  -0.40259  -0.37900
 Alpha  occ. eigenvalues --   -0.36528  -0.33306  -0.31431  -0.29948  -0.28627
 Alpha  occ. eigenvalues --   -0.26355  -0.26160  -0.25488  -0.22485
 Alpha virt. eigenvalues --   -0.04220  -0.03158  -0.01905  -0.01034   0.00217
 Alpha virt. eigenvalues --    0.01168   0.02061   0.02486   0.02908   0.03995
 Alpha virt. eigenvalues --    0.04448   0.05261   0.05692   0.06025   0.06939

 Mulliken charges:
               1
     1  C   -0.063901
     2  C   -0.105046
     3  C   -0.269536
     4  N    0.135389
     5  H    0.124120
     6  H    0.126967
     7  H    0.247704
     8  C   -0.260842
     9  H    0.160956
    10  H    0.197893
    11  H    0.139249
    12  N    0.180798
    13  C   -0.311128
    14  H    0.128356
    15  H    0.185481
    16  C    0.001057
    17  H    0.108154
    18  H    0.124171
    19  C   -0.484121
    20  H    0.159322
    21  H    0.154312
    22  S    1.303931
    23  O   -0.526489
    24  O   -0.710063
    25  O   -0.746733
 Sum of Mulliken charges =  -0.00000

 Dipole moment (field-independent basis, Debye):
    X=             10.4199    Y=              5.3617    Z=              0.1662  Tot=             11.7196
 Quadrupole moment (field-independent basis, Debye-Ang):
   XX=            -82.8072   YY=            -75.9261   ZZ=            -88.3277
   XY=            -16.8708   XZ=             -2.1987   YZ=             -1.9939

  Exact polarizability: 139.637  -5.325 132.117  -5.985  -2.082  98.170
 Approx polarizability: 190.248  -6.420 195.127 -14.885  -3.635 164.619

                      1                      2                      3
                      A                      A                      A
 Frequencies --     49.6767                68.9489                90.9788
 Red. masses --      2.6158                 2.6807                 1.4672
 Frc consts  --      0.0038                 0.0075                 0.0072
 IR Inten    --      7.3011                 3.4488                 5.4204

                      4                      5                      6
                      A                      A                      A
 Frequencies --     96.9130               145.5935               159.6731
 Red. masses --      3.5645                 9.3680                 9.6382
 Frc consts  --      0.0197                 0.1170                 0.1448
 IR Inten    --      2.9188                 2.8684                14.6903

                      7                      8                      9
                      A                      A                      A
 Frequencies --    188.1112               239.3148               252.3246
 Red. masses --      2.5954                 4.0140                 5.7531
 Frc consts  --      0.0541                 0.1354                 0.2158
 IR Inten    --      2.3237                 2.3402                 6.1665

                     10                     11                     12
                      A                      A                      A
 Frequencies --    290.6006               322.0687               381.7441
 Red. masses --      2.6966                 3.0657                 4.4882
 Frc consts  --      0.1342                 0.1874                 0.3854
 IR Inten    --      4.5373                 2.4891                 3.7271

                     13                     14                     15
                      A                      A                      A
 Frequencies --    413.4193               441.0484               496.5920
 Red. masses --      2.2533                 3.0494                 9.3862
 Frc consts  --      0.2269                 0.3495                 1.3638
 IR Inten    --      0.9282                 5.2013                12.8358

                     16                     17                     18
                      A                      A                      A
 Frequencies --    512.4336               566.6594               607.9053
 Red. masses --      7.7940                 3.8008                 4.2770
 Frc consts  --      1.2058                 0.7191                 0.9312
 IR Inten    --     40.6358                23.9812                17.0596

                     19                     20                     21
                      A                      A                      A
 Frequencies --    636.4999               661.3950               699.3379
 Red. masses --      3.7384                 3.5403                 5.0346
 Frc consts  --      0.8923                 0.9125                 1.4507
 IR Inten    --     26.4170                44.6236                30.4654

                     22                     23                     24
                      A                      A                      A
 Frequencies --    723.5654               731.5824               827.5234
 Red. masses --      1.3440                 4.0420                 1.5662
 Frc consts  --      0.4146                 1.2746                 0.6319
 IR Inten    --     36.6564                30.2396                 3.6389

                     25                     26                     27
                      A                      A                      A
 Frequencies --    835.9733               864.7961               926.2164
 Red. masses --      1.4608                 2.5119                 1.2523
 Frc consts  --      0.6015                 1.1068                 0.6330
 IR Inten    --      1.1978                 2.4378                76.4767

                     28                     29                     30
                      A                      A                      A
 Frequencies --    973.8771               993.7280              1022.9071
 Red. masses --      2.2999                 7.4510                 1.9377
 Frc consts  --      1.2852                 4.3351                 1.1946
 IR Inten    --     33.1953                79.1310                 7.8320

                     31                     32                     33
                      A                      A                      A
 Frequencies --   1042.8326              1054.9220              1063.5212
 Red. masses --      3.0380                 2.3264                 3.0878
 Frc consts  --      1.9465                 1.5254                 2.0577
 IR Inten    --      7.2076                 2.9607                 3.2023

                     34                     35                     36
                      A                      A                      A
 Frequencies --   1103.6364              1114.6466              1129.1424
 Red. masses --      1.7484                 1.4039                 3.1595
 Frc consts  --      1.2547                 1.0277                 2.3734
 IR Inten    --     26.8399                59.0677               105.8161

                     37                     38                     39
                      A                      A                      A
 Frequencies --   1151.2092              1170.1076              1203.8172
 Red. masses --      1.3270                 1.6667                 1.6125
 Frc consts  --      1.0362                 1.3445                 1.3768
 IR Inten    --      2.9849                35.4626               161.1417

                     40                     41                     42
                      A                      A                      A
 Frequencies --   1225.6404              1253.1449              1264.6891
 Red. masses --      1.9870                 2.2422                 1.4908
 Frc consts  --      1.7586                 2.0746                 1.4049
 IR Inten    --    106.2756               180.1253                70.9477

                     43                     44                     45
                      A                      A                      A
 Frequencies --   1316.9585              1338.3218              1360.9871
 Red. masses --      1.3517                 1.3386                 4.9192
 Frc consts  --      1.3812                 1.4126                 5.3685
 IR Inten    --     12.0953                 7.4903                 3.3832

                     46                     47                     48
                      A                      A                      A
 Frequencies --   1380.1917              1389.3102              1409.1348
 Red. masses --      1.3450                 1.8800                 1.6923
 Frc consts  --      1.5095                 2.1380                 1.9798
 IR Inten    --      8.2153                 0.6823                 4.9839

                     49                     50                     51
                      A                      A                      A
 Frequencies --   1455.6244              1459.1144              1464.4413
 Red. masses --      1.6637                 1.6193                 1.1499
 Frc consts  --      2.0770                 2.0312                 1.4530
 IR Inten    --      9.9007                 9.7062                 4.4297

                     52                     53                     54
                      A                      A                      A
 Frequencies --   1477.7135              1488.9976              1490.7754
 Red. masses --      1.0979                 1.0514                 1.1197
 Frc consts  --      1.4125                 1.3735                 1.4662
 IR Inten    --      5.0318                 5.4508                19.9542

                     55                     56                     57
                      A                      A                      A
 Frequencies --   1511.4436              1591.9184              1603.9342
 Red. masses --      1.1411                 3.3904                 3.9163
 Frc consts  --      1.5359                 5.0622                 5.9361
 IR Inten    --     23.0769                46.6562                14.5040

                     58                     59                     60
                      A                      A                      A
 Frequencies --   3031.3839              3062.2851              3064.2584
 Red. masses --      1.0656                 1.0323                 1.0633
 Frc consts  --      5.7696                 5.7038                 5.8822
 IR Inten    --     23.6766                17.8260                 6.2465

                     61                     62                     63
                      A                      A                      A
 Frequencies --   3072.1916              3083.2605              3119.9728
 Red. masses --      1.0677                 1.0883                 1.1061
 Frc consts  --      5.9372                 6.0958                 6.3435
 IR Inten    --     17.9612                27.7727                 6.5078

                     64                     65                     66
                      A                      A                      A
 Frequencies --   3131.6466              3136.3229              3137.7161
 Red. masses --      1.1117                 1.1040                 1.1059
 Frc consts  --      6.4235                 6.3980                 6.4149
 IR Inten    --    242.0080                13.2963                 1.7727

                     67                     68                     69
                      A                      A                      A
 Frequencies --   3155.5114              3274.7569              3292.4401
 Red. masses --      1.1056                 1.0923                 1.1089
 Frc consts  --      6.4859                 6.9014                 7.0822
 IR Inten    --      1.3230                 5.4002                 1.9926

 - Thermochemistry -
 -------------------
 Temperature   298.150 Kelvin.  Pressure   1.00000 Atm.
 Atom     1 has atomic number  6 and mass  12.00000

 Molecular mass:   204.05686 amu.
 Principal axes and moments of inertia in atomic units:
                           1         2         3
     Eigenvalues --  1500.710623044.852173926.45983
           X            0.99835  -0.05732  -0.00372
           Y            0.05728   0.99831  -0.00990
           Z            0.00428   0.00967   0.99994
 This molecule is an asymmetric top.
 Rotational symmetry number  1.
 Warning -- assumption of classical behavior for rotation
           may cause significant error
 Rotational temperatures (Kelvin)      0.05772     0.02845     0.02206
 Rotational constants (GHZ):           1.20259     0.59272     0.45964
 Zero-point vibrational energy     528147.3 (Joules/Mol)
                                  126.23023 (Kcal/Mol)
 Warning -- explicit consideration of  18 degrees of freedom as
           vibrations may cause significant error
 Vibrational temperatures:     71.47    99.20   130.90   139.44   209.48
          (Kelvin)            229.73   270.65   344.32   363.04   418.11
                              463.39   549.24   594.82   634.57   714.49
                              737.28   815.30   874.64   915.78   951.60
                             1006.19  1041.05  1052.58  1190.62  1202.78
                             1244.25  1332.62  1401.19  1429.75  1471.74
                             1500.40  1517.80  1530.17  1587.89  1603.73
                             1624.58  1656.33  1683.52  1732.02  1763.42
                             1803.00  1819.61  1894.81  1925.55  1958.16
                             1985.79  1998.91  2027.43  2094.32  2099.34
                             2107.00  2126.10  2142.34  2144.89  2174.63
                             2290.42  2307.70  4361.49  4405.95  4408.78
                             4420.20  4436.12  4488.94  4505.74  4512.47
                             4514.47  4540.08  4711.64  4737.09

 Zero-point correction=                           0.201161 (Hartree/Particle)
 Thermal correction to Energy=                    0.213760
 Thermal correction to Enthalpy=                  0.214704
 Thermal correction to Gibbs Free Energy=         0.161717
 Sum of electronic and zero-point Energies=          -1007.359799
 Sum of electronic and thermal Energies=             -1007.347200
 Sum of electronic and thermal Enthalpies=           -1007.346256
 Sum of electronic and thermal Free Energies=        -1007.399243

                     E (Thermal)             CV                S
                      KCal/Mol        Cal/Mol-Kelvin    Cal/Mol-Kelvin
 Total                  134.136             47.217            111.521
 Electronic               0.000              0.000              0.000
 Translational            0.889              2.981             41.844
 Rotational               0.889              2.981             31.262
 Vibrational            132.359             41.256             38.415
 Vibration     1          0.595              1.978              4.830
 Vibration     2          0.598              1.969              4.183
 Vibration     3          0.602              1.956              3.639
 Vibration     4          0.603              1.951              3.515
 Vibration     5          0.617              1.907              2.729
 Vibration     6          0.622              1.892              2.554
 Vibration     7          0.633              1.856              2.246
 Vibration     8          0.657              1.780              1.808
 Vibration     9          0.664              1.759              1.714
 Vibration    10          0.687              1.691              1.470
 Vibration    11          0.707              1.631              1.300
 Vibration    12          0.751              1.509              1.032
 Vibration    13          0.777              1.441              0.915
 Vibration    14          0.801              1.381              0.823
 Vibration    15          0.852              1.258              0.667
 Vibration    16          0.868              1.222              0.628
 Vibration    17          0.923              1.103              0.511
 Vibration    18          0.967              1.015              0.436

 Optimization completed.
    -- Stationary point found.
 Normal termination of Gaussian 16 at Wed Oct 11 15:49:20 2023.
