 Gaussian 16, Revision A.03,
 Gaussian 16:  ES64L-G16RevA.03 25-Dec-2016

 -----------------------------------
 #p opt freq B3LYP/6-311G** em=GD3BJ
 -----------------------------------

 -------------------
 Title Card Required
 -------------------
 Symbolic Z-matrix:
 Charge =  0 Multiplicity = 1

 SCF Done:  E(RB3LYP) =  -1029.54300993     A.U. after   14 cycles
 SCF Done:  E(RB3LYP) =  -1029.55305731     A.U. after   12 cycles
 SCF Done:  E(RB3LYP) =  -1029.55955187     A.U. after   12 cycles
 SCF Done:  E(RB3LYP) =  -1029.56376891     A.U. after   12 cycles
 SCF Done:  E(RB3LYP) =  -1029.56723597     A.U. after   11 cycles
 SCF Done:  E(RB3LYP) =  -1029.56971207     A.U. after   12 cycles
 SCF Done:  E(RB3LYP) =  -1029.57096489     A.U. after   11 cycles
 SCF Done:  E(RB3LYP) =  -1029.57176718     A.U. after   11 cycles
 SCF Done:  E(RB3LYP) =  -1029.57284678     A.U. after   12 cycles
 SCF Done:  E(RB3LYP) =  -1029.57308229     A.U. after   11 cycles
 SCF Done:  E(RB3LYP) =  -1029.57323840     A.U. after    8 cycles
 SCF Done:  E(RB3LYP) =  -1029.57323892     A.U. after    7 cycles
 SCF Done:  E(RB3LYP) =  -1029.57323905     A.U. after    6 cycles
 SCF Done:  E(RB3LYP) =  -1029.57323912     A.U. after    6 cycles
 SCF Done:  E(RB3LYP) =  -1029.57323915     A.U. after    6 cycles
 SCF Done:  E(RB3LYP) =  -1029.57323921     A.U. after    6 cycles
 SCF Done:  E(RB3LYP) =  -1029.57323926     A.U. after    6 cycles
 SCF Done:  E(RB3LYP) =  -1029.57323930     A.U. after    6 cycles
 SCF Done:  E(RB3LYP) =  -1029.57323932     A.U. after    6 cycles
 Optimization completed.
    -- Stationary point found.
 Normal termination of Gaussian 16 at Wed Apr 20 08:56:09 2022.

 ----------------------------------------------------------------------
 #P Geom=AllCheck Guess=TCheck SCRF=Check GenChk RB3LYP/6-311G(d,p) Fre
 q
 ----------------------------------------------------------------------

 Structure from the checkpoint file:  "MPyPS.chk"
 -------------------
 Title Card Required
 -------------------
 Charge =  0 Multiplicity = 1

                         Standard orientation:
 ---------------------------------------------------------------------
 Center     Atomic      Atomic             Coordinates (Angstroms)
 Number     Number       Type             X           Y           Z
 ---------------------------------------------------------------------
      1          6           0        0.703688   -0.841629   -0.890865
      2          6           0        1.653771   -1.783973   -0.510908
      3          6           0        2.836253   -1.373802    0.067392
      4          6           0        3.093912   -0.004630    0.264350
      5          6           0        2.126016    0.882158   -0.149600
      6          1           0        3.572946   -2.104786    0.381289
      7          1           0       -0.259860   -1.083078   -1.330384
      8          1           0        1.422142   -2.830297   -0.650268
      9          1           0        2.234713    1.951951   -0.035672
     10          6           0        4.367766    0.474337    0.904491
     11          1           0        4.401689    1.562916    0.963716
     12          1           0        4.460665    0.077796    1.918828
     13          1           0        5.239472    0.137921    0.337269
     14          7           0        0.970949    0.465096   -0.726739
     15          6           0       -0.063401    1.487839   -1.053527
     16          1           0        0.468478    2.312910   -1.526984
     17          1           0       -0.742325    1.030662   -1.769946
     18          6           0       -0.825788    1.963440    0.206434
     19          1           0       -0.241363    1.701001    1.090256
     20          1           0       -0.886845    3.055098    0.170677
     21          6           0       -2.237858    1.401224    0.374826
     22          1           0       -2.923120    1.771670   -0.388968
     23          1           0       -2.628845    1.666654    1.357080
     24         16           0       -2.289397   -0.422315    0.262181
     25          8           0       -3.562365   -0.837378    0.853940
     26          8           0       -1.056600   -0.854792    0.994220
     27          8           0       -2.157309   -0.680185   -1.210683
 ---------------------------------------------------------------------

 SCF Done:  E(RB3LYP) =  -1029.57323932     A.U. after    1 cycles

 The electronic state is 1-A.
 Alpha  occ. eigenvalues --  -89.00385 -19.05032 -19.04943 -19.04548 -14.44606
 Alpha  occ. eigenvalues --  -10.27480 -10.26430 -10.24707 -10.24670 -10.24233
 Alpha  occ. eigenvalues --  -10.22917 -10.21649 -10.19869 -10.17852  -8.06372
 Alpha  occ. eigenvalues --   -6.02636  -6.02620  -6.02550  -1.07274  -1.05568
 Alpha  occ. eigenvalues --   -0.93952  -0.93116  -0.89162  -0.84350  -0.81453
 Alpha  occ. eigenvalues --   -0.76520  -0.74267  -0.69256  -0.67470  -0.63887
 Alpha  occ. eigenvalues --   -0.58099  -0.56150  -0.54247  -0.52979  -0.50814
 Alpha  occ. eigenvalues --   -0.50406  -0.48453  -0.47337  -0.46130  -0.45903
 Alpha  occ. eigenvalues --   -0.44686  -0.43686  -0.42581  -0.41595  -0.41189
 Alpha  occ. eigenvalues --   -0.40497  -0.39587  -0.37832  -0.36702  -0.34061
 Alpha  occ. eigenvalues --   -0.32067  -0.28979  -0.28524  -0.25611  -0.25507
 Alpha  occ. eigenvalues --   -0.24900  -0.21871
 Alpha virt. eigenvalues --   -0.10250  -0.06389   0.00646   0.02440   0.03467
 Alpha virt. eigenvalues --    0.04629   0.05275   0.07038   0.08241   0.08731
 Alpha virt. eigenvalues --    0.08935   0.09899   0.10731   0.11268   0.11607

 Mulliken charges:
               1
     1  C    0.220323
     2  C   -0.193937
     3  C    0.086932
     4  C   -0.259448
     5  C    0.228060
     6  H    0.119614
     7  H    0.232397
     8  H    0.138141
     9  H    0.134111
    10  C   -0.252382
    11  H    0.117339
    12  H    0.146662
    13  H    0.138447
    14  N   -0.315563
    15  C   -0.172969
    16  H    0.139133
    17  H    0.195272
    18  C   -0.211977
    19  H    0.146368
    20  H    0.121820
    21  C   -0.395702
    22  H    0.154989
    23  H    0.158545
    24  S    1.072415
    25  O   -0.513289
    26  O   -0.614617
    27  O   -0.620683
 Sum of Mulliken charges =  -0.00000

 Dipole moment (field-independent basis, Debye):
    X=             12.5121    Y=              4.9211    Z=             -1.7560  Tot=             13.5593
 Quadrupole moment (field-independent basis, Debye-Ang):
   XX=            -96.1592   YY=            -80.5072   ZZ=            -94.8827
   XY=            -13.5907   XZ=              4.4765   YZ=              1.9471

  Exact polarizability: 171.611  -3.649 132.760   9.095   1.596  93.673
 Approx polarizability: 236.244  -0.169 214.937  20.746   1.608 157.006

                      1                      2                      3
                      A                      A                      A
 Frequencies --     42.1552                86.3086                91.6904
 Red. masses --      5.1452                 1.3042                 2.6479
 Frc consts  --      0.0054                 0.0057                 0.0131
 IR Inten    --      4.5089                 2.8770                 7.5963

                      4                      5                      6
                      A                      A                      A
 Frequencies --    106.8624               136.7252               150.9363
 Red. masses --      3.7618                 6.7732                 5.1490
 Frc consts  --      0.0253                 0.0746                 0.0691
 IR Inten    --      7.9902                 3.3058                 7.9721

                      7                      8                      9
                      A                      A                      A
 Frequencies --    184.4658               225.3817               256.5023
 Red. masses --      3.4658                 4.2076                 3.9337
 Frc consts  --      0.0695                 0.1259                 0.1525
 IR Inten    --      6.4935                 0.5018                25.7323

                     10                     11                     12
                      A                      A                      A
 Frequencies --    304.5710               324.8575               337.0411
 Red. masses --      2.8475                 3.0112                 3.9519
 Frc consts  --      0.1556                 0.1872                 0.2645
 IR Inten    --      4.8143                 2.9462                 0.9488

                     13                     14                     15
                      A                      A                      A
 Frequencies --    408.9049               425.6135               447.5365
 Red. masses --      3.4710                 2.1300                 2.9341
 Frc consts  --      0.3419                 0.2273                 0.3462
 IR Inten    --      7.4639                 1.3176                 9.5133

                     16                     17                     18
                      A                      A                      A
 Frequencies --    491.5259               503.9629               521.9183
 Red. masses --      8.7680                 7.3115                 5.4673
 Frc consts  --      1.2481                 1.0941                 0.8775
 IR Inten    --     13.8132                39.0057                10.4265

                     19                     20                     21
                      A                      A                      A
 Frequencies --    547.6238               564.7264               596.5419
 Red. masses --      4.9926                 2.9415                 5.5180
 Frc consts  --      0.8822                 0.5527                 1.1569
 IR Inten    --      2.8121                16.6193                24.4383

                     22                     23                     24
                      A                      A                      A
 Frequencies --    694.0068               716.9802               749.8513
 Red. masses --      4.0970                 3.5696                 5.2116
 Frc consts  --      1.1626                 1.0811                 1.7265
 IR Inten    --     62.2104                45.5090                11.6748

                     25                     26                     27
                      A                      A                      A
 Frequencies --    817.1397               828.0355               868.4706
 Red. masses --      1.6088                 1.4523                 2.2051
 Frc consts  --      0.6329                 0.5867                 0.9799
 IR Inten    --     20.2398                19.0014                 1.9682

                     28                     29                     30
                      A                      A                      A
 Frequencies --    900.7737               935.0226               975.4845
 Red. masses --      1.3695                 3.2504                 7.6027
 Frc consts  --      0.6547                 1.6743                 4.2625
 IR Inten    --      0.4153                 4.3141               106.5734

                     31                     32                     33
                      A                      A                      A
 Frequencies --    991.2826              1007.5540              1015.1261
 Red. masses --      1.7618                 1.4779                 1.8288
 Frc consts  --      1.0200                 0.8840                 1.1103
 IR Inten    --     17.1065                 3.3165                16.0811

                     34                     35                     36
                      A                      A                      A
 Frequencies --   1028.6852              1034.9194              1055.0624
 Red. masses --      1.5890                 1.5280                 4.0855
 Frc consts  --      0.9907                 0.9643                 2.6795
 IR Inten    --     10.8898                11.4348                17.4075

                     37                     38                     39
                      A                      A                      A
 Frequencies --   1062.5707              1070.6268              1115.1857
 Red. masses --      2.3726                 1.5339                 4.5198
 Frc consts  --      1.5783                 1.0359                 3.3118
 IR Inten    --      1.2972                 2.6771               173.8780

                     40                     41                     42
                      A                      A                      A
 Frequencies --   1137.5841              1171.0933              1194.8326
 Red. masses --      1.8060                 1.5473                 1.3760
 Frc consts  --      1.3770                 1.2503                 1.1574
 IR Inten    --      2.3255                14.9159                42.4989

                     43                     44                     45
                      A                      A                      A
 Frequencies --   1222.7285              1240.8140              1254.5773
 Red. masses --      2.1253                 1.3329                 2.6381
 Frc consts  --      1.8721                 1.2091                 2.4464
 IR Inten    --    174.8094                18.8282                93.0410

                     46                     47                     48
                      A                      A                      A
 Frequencies --   1261.1100              1279.5092              1337.7773
 Red. masses --      2.5773                 1.7140                 1.2720
 Frc consts  --      2.4151                 1.6533                 1.3412
 IR Inten    --    135.9955                37.5772                12.6041

                     49                     50                     51
                      A                      A                      A
 Frequencies --   1370.1404              1371.6990              1376.3266
 Red. masses --      1.5507                 1.4758                 1.7077
 Frc consts  --      1.7152                 1.6360                 1.9059
 IR Inten    --      3.4947                 8.3516                 4.2065

                     52                     53                     54
                      A                      A                      A
 Frequencies --   1406.3209              1424.6453              1465.5671
 Red. masses --      1.2799                 1.2471                 1.0886
 Frc consts  --      1.4914                 1.4914                 1.3776
 IR Inten    --      0.5338                 1.7502                 6.7723

                     55                     56                     57
                      A                      A                      A
 Frequencies --   1473.6991              1476.9140              1486.2166
 Red. masses --      1.1147                 1.2690                 1.0414
 Frc consts  --      1.4264                 1.6309                 1.3553
 IR Inten    --      6.3919                 6.3350                 8.9241

                     58                     59                     60
                      A                      A                      A
 Frequencies --   1495.4322              1530.2396              1537.9374
 Red. masses --      1.0800                 1.6919                 2.1659
 Frc consts  --      1.4230                 2.3343                 3.0183
 IR Inten    --     13.0601                37.0229                53.6528

                     61                     62                     63
                      A                      A                      A
 Frequencies --   1625.8222              1687.6070              3037.3974
 Red. masses --      4.6668                 4.9601                 1.0365
 Frc consts  --      7.2681                 8.3231                 5.6341
 IR Inten    --      6.5087                15.7292                13.8201

                     64                     65                     66
                      A                      A                      A
 Frequencies --   3038.4585              3071.8041              3077.9845
 Red. masses --      1.0650                 1.0609                 1.0653
 Frc consts  --      5.7929                 5.8981                 5.9466
 IR Inten    --     24.1316                 7.1451                17.8572

                     67                     68                     69
                      A                      A                      A
 Frequencies --   3092.8042              3092.8501              3115.7655
 Red. masses --      1.0956                 1.0981                 1.1035
 Frc consts  --      6.1746                 6.1887                 6.3119
 IR Inten    --     16.5409                15.4771               174.8886

                     70                     71                     72
                      A                      A                      A
 Frequencies --   3117.2886              3130.6403              3144.8545
 Red. masses --      1.1017                 1.1072                 1.1061
 Frc consts  --      6.3077                 6.3938                 6.4453
 IR Inten    --     14.4351                 9.8569                 9.0242

                     73                     74                     75
                      A                      A                      A
 Frequencies --   3179.7216              3211.0465              3223.3228
 Red. masses --      1.0911                 1.0930                 1.0948
 Frc consts  --      6.4998                 6.6398                 6.7016
 IR Inten    --      3.0880                 0.4503                 0.2659

 - Thermochemistry -
 -------------------
 Temperature   298.150 Kelvin.  Pressure   1.00000 Atm.
 Atom     1 has atomic number  6 and mass  12.00000

 Molecular mass:   215.06162 amu.
 Principal axes and moments of inertia in atomic units:
                           1         2         3
     Eigenvalues --  1344.320744631.214005151.88932
           X            0.99986  -0.01174   0.01196
           Y            0.01153   0.99978   0.01763
           Z           -0.01216  -0.01749   0.99977
 This molecule is an asymmetric top.
 Rotational symmetry number  1.
 Warning -- assumption of classical behavior for rotation
           may cause significant error
 Rotational temperatures (Kelvin)      0.06443     0.01870     0.01681
 Rotational constants (GHZ):           1.34249     0.38969     0.35031
 Zero-point vibrational energy     574118.8 (Joules/Mol)
                                  137.21768 (Kcal/Mol)
 Warning -- explicit consideration of  21 degrees of freedom as
           vibrations may cause significant error
 Vibrational temperatures:     60.65   124.18   131.92   153.75   196.72
          (Kelvin)            217.16   265.41   324.27   369.05   438.21
                              467.40   484.93   588.32   612.36   643.91
                              707.20   725.09   750.92   787.91   812.52
                              858.29   998.52  1031.57  1078.87  1175.68
                             1191.36  1249.54  1296.01  1345.29  1403.50
                             1426.23  1449.65  1460.54  1480.05  1489.02
                             1518.00  1528.80  1540.39  1604.50  1636.73
                             1684.94  1719.10  1759.23  1785.25  1805.06
                             1814.46  1840.93  1924.76  1971.33  1973.57
                             1980.23  2023.38  2049.75  2108.62  2120.32
                             2124.95  2138.33  2151.59  2201.67  2212.75
                             2339.20  2428.09  4370.14  4371.66  4419.64
                             4428.53  4449.86  4449.92  4482.89  4485.08
                             4504.29  4524.74  4574.91  4619.98  4637.64

 Zero-point correction=                           0.218670 (Hartree/Particle)
 Thermal correction to Energy=                    0.231867
 Thermal correction to Enthalpy=                  0.232811
 Thermal correction to Gibbs Free Energy=         0.178629
 Sum of electronic and zero-point Energies=          -1029.354569
 Sum of electronic and thermal Energies=             -1029.341372
 Sum of electronic and thermal Enthalpies=           -1029.340428
 Sum of electronic and thermal Free Energies=        -1029.394610

                     E (Thermal)             CV                S
                      KCal/Mol        Cal/Mol-Kelvin    Cal/Mol-Kelvin
 Total                  145.499             50.531            114.036
 Electronic               0.000              0.000              0.000
 Translational            0.889              2.981             42.001
 Rotational               0.889              2.981             31.839
 Vibrational            143.721             44.570             40.196
 Vibration     1          0.595              1.980              5.155
 Vibration     2          0.601              1.959              3.742
 Vibration     3          0.602              1.955              3.624
 Vibration     4          0.606              1.944              3.325
 Vibration     5          0.614              1.917              2.849
 Vibration     6          0.618              1.902              2.660
 Vibration     7          0.631              1.861              2.283
 Vibration     8          0.650              1.802              1.915
 Vibration     9          0.666              1.752              1.685
 Vibration    10          0.695              1.665              1.392
 Vibration    11          0.709              1.626              1.286
 Vibration    12          0.718              1.602              1.226
 Vibration    13          0.773              1.451              0.930
 Vibration    14          0.787              1.415              0.873
 Vibration    15          0.807              1.366              0.803
 Vibration    16          0.847              1.269              0.680
 Vibration    17          0.859              1.241              0.648
 Vibration    18          0.877              1.201              0.606
 Vibration    19          0.903              1.145              0.549
 Vibration    20          0.921              1.108              0.514
 Vibration    21          0.954              1.039              0.456

 Optimization completed.
    -- Stationary point found.
 Normal termination of Gaussian 16 at Wed Apr 20 09:00:44 2022.
