 Gaussian 16, Revision A.03,
 Gaussian 16:  ES64L-G16RevA.03 25-Dec-2016

 --------------------------------------
 #p opt freq b3lyp/6-311g(d,p) em=gd3bj
 --------------------------------------

 -------------------
 Title Card Required
 -------------------
 Symbolic Z-matrix:
 Charge =  0 Multiplicity = 1

 SCF Done:  E(RB3LYP) =  -226.272455342     A.U. after   14 cycles
 SCF Done:  E(RB3LYP) =  -226.287467992     A.U. after   12 cycles
 SCF Done:  E(RB3LYP) =  -226.288206212     A.U. after   11 cycles
 SCF Done:  E(RB3LYP) =  -226.288253779     A.U. after    9 cycles
 SCF Done:  E(RB3LYP) =  -226.288256024     A.U. after    8 cycles
 Optimization completed.
    -- Stationary point found.
 Normal termination of Gaussian 16 at Wed Nov 23 20:55:21 2022.

 ----------------------------------------------------------------------
 #P Geom=AllCheck Guess=TCheck SCRF=Check GenChk RB3LYP/6-311G(d,p) Fre
 q
 ----------------------------------------------------------------------

 Structure from the checkpoint file:  "Im.chk"
 -------------------
 Title Card Required
 -------------------
 Charge =  0 Multiplicity = 1

                         Standard orientation:
 ---------------------------------------------------------------------
 Center     Atomic      Atomic             Coordinates (Angstroms)
 Number     Number       Type             X           Y           Z
 ---------------------------------------------------------------------
      1          6           0        0.637376    0.967983   -0.000072
      2          6           0        1.129381   -0.311248   -0.000075
      3          6           0       -1.002671   -0.515872    0.000044
      4          7           0       -0.734777    0.824566    0.000036
      5          1           0       -1.409850    1.571599    0.000138
      6          1           0        1.115006    1.932918   -0.000150
      7          1           0        2.161060   -0.625416   -0.000143
      8          1           0       -2.009122   -0.905035    0.000101
      9          7           0        0.100261   -1.227315    0.000060
 ---------------------------------------------------------------------

 SCF Done:  E(RB3LYP) =  -226.288256024     A.U. after    1 cycles

 The electronic state is 1-A.
 Alpha  occ. eigenvalues --  -14.37025 -14.28673 -10.22184 -10.19873 -10.17983
 Alpha  occ. eigenvalues --   -1.01625  -0.87165  -0.74533  -0.61840  -0.59223
 Alpha  occ. eigenvalues --   -0.56503  -0.44395  -0.44115  -0.43309  -0.40976
 Alpha  occ. eigenvalues --   -0.28521  -0.26964  -0.23457
 Alpha virt. eigenvalues --    0.02125   0.02966   0.06210   0.07938   0.08540
 Alpha virt. eigenvalues --    0.10494   0.19434   0.21276   0.23555   0.28471
 Alpha virt. eigenvalues --    0.32343   0.36255   0.37823   0.39903   0.40029

 Mulliken charges:
               1
     1  C    0.000326
     2  C   -0.072289
     3  C    0.151873
     4  N   -0.328230
     5  H    0.226626
     6  H    0.107691
     7  H    0.101729
     8  H    0.111007
     9  N   -0.298732
 Sum of Mulliken charges =   0.00000

 Dipole moment (field-independent basis, Debye):
    X=             -1.5447    Y=              3.3901    Z=              0.0000  Tot=              3.7255
 Quadrupole moment (field-independent basis, Debye-Ang):
   XX=            -22.9074   YY=            -29.2006   ZZ=            -31.6521
   XY=             -0.8670   XZ=             -0.0007   YZ=              0.0003

  Exact polarizability:  50.316   0.920  47.659  -0.002  -0.001  22.685
 Approx polarizability:  78.107  -1.098  81.395  -0.002  -0.001  33.634

                      1                      2                      3
                      A                      A                      A
 Frequencies --    527.2916               646.6947               684.1027
 Red. masses --      1.5303                 2.1936                 2.8674
 Frc consts  --      0.2507                 0.5405                 0.7906
 IR Inten    --     95.5741                10.5805                 5.4026

                      4                      5                      6
                      A                      A                      A
 Frequencies --    728.6778               813.6816               868.5653
 Red. masses --      1.2318                 1.3890                 1.3472
 Frc consts  --      0.3854                 0.5418                 0.5988
 IR Inten    --     35.9864                34.1280                 4.3432

                      7                      8                      9
                      A                      A                      A
 Frequencies --    915.9220               951.0096              1075.0564
 Red. masses --      5.3571                 4.2753                 1.6253
 Frc consts  --      2.6479                 2.2782                 1.1067
 IR Inten    --      9.1425                 2.2898                39.3082

                     10                     11                     12
                      A                      A                      A
 Frequencies --   1092.6842              1144.6459              1167.5750
 Red. masses --      1.5525                 1.3969                 6.2763
 Frc consts  --      1.0921                 1.0783                 5.0411
 IR Inten    --     19.3385                 2.5194                 5.4255

                     13                     14                     15
                      A                      A                      A
 Frequencies --   1280.6876              1362.1839              1433.1371
 Red. masses --      1.3724                 3.4642                 2.8912
 Frc consts  --      1.3262                 3.7872                 3.4987
 IR Inten    --      0.3131                 5.9782                14.2988

                     16                     17                     18
                      A                      A                      A
 Frequencies --   1499.0946              1556.7887              3238.3739
 Red. masses --      3.1151                 3.1807                 1.0927
 Frc consts  --      4.1245                 4.5418                 6.7514
 IR Inten    --     16.6258                12.7093                 7.0839

                     19                     20                     21
                      A                      A                      A
 Frequencies --   3241.1451              3270.9625              3658.8961
 Red. masses --      1.0967                 1.1044                 1.0814
 Frc consts  --      6.7877                 6.9616                 8.5299
 IR Inten    --      0.0730                 1.9295                51.5200

 - Thermochemistry -
 -------------------
 Temperature   298.150 Kelvin.  Pressure   1.00000 Atm.
 Atom     1 has atomic number  6 and mass  12.00000

 Molecular mass:    68.03745 amu.
 Principal axes and moments of inertia in atomic units:
                           1         2         3
     Eigenvalues --   185.28384 191.85067 377.13451
           X           -0.22391   0.97461   0.00006
           Y            0.97461   0.22391   0.00003
           Z           -0.00001  -0.00007   1.00000
 This molecule is an asymmetric top.
 Rotational symmetry number  1.
 Rotational temperatures (Kelvin)      0.46747     0.45147     0.22966
 Rotational constants (GHZ):           9.74041     9.40701     4.78540
 Zero-point vibrational energy     186361.3 (Joules/Mol)
                                   44.54142 (Kcal/Mol)
 Warning -- explicit consideration of   1 degrees of freedom as
           vibrations may cause significant error
 Vibrational temperatures:    758.66   930.45   984.27  1048.40  1170.71
          (Kelvin)           1249.67  1317.81  1368.29  1546.77  1572.13
                             1646.89  1679.88  1842.62  1959.88  2061.96
                             2156.86  2239.87  4659.30  4663.28  4706.19
                             5264.34

 Zero-point correction=                           0.070981 (Hartree/Particle)
 Thermal correction to Energy=                    0.074735
 Thermal correction to Enthalpy=                  0.075679
 Thermal correction to Gibbs Free Energy=         0.044716
 Sum of electronic and zero-point Energies=           -226.217275
 Sum of electronic and thermal Energies=              -226.213521
 Sum of electronic and thermal Enthalpies=            -226.212577
 Sum of electronic and thermal Free Energies=         -226.243540

                     E (Thermal)             CV                S
                      KCal/Mol        Cal/Mol-Kelvin    Cal/Mol-Kelvin
 Total                   46.897             13.375             65.167
 Electronic               0.000              0.000              0.000
 Translational            0.889              2.981             38.570
 Rotational               0.889              2.981             24.109
 Vibrational             45.120              7.413              2.488
 Vibration     1          0.882              1.190              0.593

 Optimization completed.
    -- Stationary point found.
 Normal termination of Gaussian 16 at Wed Nov 23 20:55:36 2022.
