                               Psi4 1.3.2 release

  ==> Input File <==

--------------------------------------------------------------------------
memory 200 GB

molecule dimer {
0 1
C     18.42000000    2.62100000   13.84400000
C     18.59000000    1.60000000   14.76700000
C     16.43300100    1.58600000   14.10000000
N     17.08200100    2.59200000   13.43800000
H     19.12599900    3.33700000   13.46900000
H     19.46500000    1.29800000   15.30900000
H     15.38000000    1.28300000   13.98600000
C     16.47300000    3.54200000   12.52500000
H     17.23300000    4.12800000   11.98600000
H     15.83100000    3.02500000   11.77600000
H     15.81200000    4.24800000   13.08400000
N     17.35600100    0.95700000   14.90000000
C     17.03700100   -0.03900000   15.92300000
H     17.79200000   -0.85500000   15.87800000
H     16.04200000   -0.50500000   15.68300000
C     17.01300000    0.61300000   17.32399900
H     17.63800000    0.01200000   18.01499900
H     17.49799900    1.61400000   17.28900000
C     15.61100000    0.74400000   17.89399900
H     15.65200000    1.17700000   18.91099900
H     15.13600000   -0.24700000   18.01800000
S     14.49100000    1.77400000   16.89600000
O     13.67000000    2.49500000   17.85300100
O     15.34900000    2.61700000   15.99600000
O     13.79400000    0.77600000   16.01800000
--
0 1
P     12.80500000    2.67100000   13.28500000
O     13.71300000    1.96800000   12.37500000
O     13.52600000    3.85500000   14.08300000
H     14.18200000    3.47800000   14.79300000
O     11.68700000    3.46900000   12.47800000
H     11.09300000    3.94700000   13.17600000
O     11.97800000    1.81400000   14.31200000
H     12.66100000    1.28700000   14.96800000
}

set {
    scf_type DF
    freeze_core True
    basis aug-cc-pVTZ
}

energy('sapt2+(3)dmp2')
--------------------------------------------------------------------------

  //              Dimer HF             //
    Molecular point group: c1
  Charge       = 0
  Multiplicity = 1
  Basis Set: AUG-CC-PVTZ
    Blend: AUG-CC-PVTZ
  Basis Set: (AUG-CC-PVTZ AUX)
    Blend: AUG-CC-PVTZ-JKFIT
  @DF-RHF Final Energy: -1645.47183577461988
    Total Energy =                      -1645.4718357746196489
  Basis Set: (AUG-CC-PVTZ AUX)
    Blend: AUG-CC-PVTZ-RI
	 Reference Energy          =   -1645.4718357746198762 [Eh]
	 Singles Energy            =      -0.0000000000000000 [Eh]
	 Same-Spin Energy          =      -0.9512359628159498 [Eh]
	 Opposite-Spin Energy      =      -2.7405982935767241 [Eh]
	 Correlation Energy        =      -3.6918342563926738 [Eh]
	 Total Energy              =   -1649.1636700310125434 [Eh]
	 SCS Total Energy          =   -1649.0776323811840030 [Eh]
  //            Monomer A HF           //
    Molecular point group: c1
  Multiplicity = 1
  Basis Set: AUG-CC-PVTZ
    Blend: AUG-CC-PVTZ
  Basis Set: (AUG-CC-PVTZ AUX)
    Blend: AUG-CC-PVTZ-JKFIT
  @DF-RHF Final Energy: -1003.23480301081406
    Total Energy =                      -1003.2348030108141757
  Basis Set: (AUG-CC-PVTZ AUX)
	 Singles Energy            =      -0.0000000000000000 [Eh]
	 Same-Spin Energy          =      -0.6442691756739798 [Eh]
	 Opposite-Spin Energy      =      -1.8900052458362733 [Eh]
	 Correlation Energy        =      -2.5342744215102533 [Eh]
	 Total Energy              =   -1005.7690774323243659 [Eh]
	 SCS Total Energy          =   -1005.7175656977088920 [Eh]
  //            Monomer B HF           //
    Molecular point group: c1

    Geometry (in Angstrom), charge = 0, multiplicity = 1:

       Center              X                  Y                   Z               Mass
    ------------   -----------------  -----------------  -----------------  -----------------
      Gh(C)           3.459729043066     0.580142330854    -1.063132915608    12.000000000000
      Gh(C)           3.629729043066    -0.440857669146    -0.140132915608    12.000000000000
      Gh(C)           1.472730043066    -0.454857669146    -0.807132915608    12.000000000000
      Gh(N)           2.121730043066     0.551142330854    -1.469132915608    14.003074004430
      Gh(H)           4.165728043066     1.296142330854    -1.438132915608     1.007825032230
      Gh(H)           4.504729043066    -0.742857669146     0.401867084392     1.007825032230
      Gh(H)           0.419729043066    -0.757857669146    -0.921132915608     1.007825032230
      Gh(C)           1.512729043066     1.501142330854    -2.382132915608    12.000000000000
      Gh(H)           2.272729043066     2.087142330854    -2.921132915608     1.007825032230
      Gh(H)           0.870729043066     0.984142330854    -3.131132915608     1.007825032230
      Gh(H)           0.851729043066     2.207142330854    -1.823132915608     1.007825032230
      Gh(N)           2.395730043066    -1.083857669146    -0.007132915608    14.003074004430
      Gh(C)           2.076730043066    -2.079857669146     1.015867084392    12.000000000000
      Gh(H)           2.831729043066    -2.895857669146     0.970867084392     1.007825032230
      Gh(H)           1.081729043066    -2.545857669146     0.775867084392     1.007825032230
      Gh(C)           2.052729043066    -1.427857669146     2.416866084392    12.000000000000
      Gh(H)           2.677729043066    -2.028857669146     3.107866084392     1.007825032230
      Gh(H)           2.537728043066    -0.426857669146     2.381867084392     1.007825032230
      Gh(C)           0.650729043066    -1.296857669146     2.986866084392    12.000000000000
      Gh(H)           0.691729043066    -0.863857669146     4.003866084392     1.007825032230
      Gh(H)           0.175729043066    -2.287857669146     3.110867084392     1.007825032230
      Gh(S)          -0.469270956934    -0.266857669146     1.988867084392    31.972071174400
      Gh(O)          -1.290270956934     0.454142330854     2.945868084392    15.994914619570
      Gh(O)           0.388729043066     0.576142330854     1.088867084392    15.994914619570
      Gh(O)          -1.166270956934    -1.264857669146     1.110867084392    15.994914619570
         P           -2.155270956934     0.630142330854    -1.622132915608    30.973761998420
         O           -1.247270956934    -0.072857669146    -2.532132915608    15.994914619570
         O           -1.434270956934     1.814142330854    -0.824132915608    15.994914619570
         H           -0.778270956934     1.437142330854    -0.114132915608     1.007825032230
         O           -3.273270956934     1.428142330854    -2.429132915608    15.994914619570
         H           -3.867270956934     1.906142330854    -1.731132915608     1.007825032230
         O           -2.982270956934    -0.226857669146    -0.595132915608    15.994914619570
         H           -2.299270956934    -0.753857669146     0.060867084392     1.007825032230

  Charge       = 0
  Multiplicity = 1
  Basis Set: AUG-CC-PVTZ
    Blend: AUG-CC-PVTZ
  Basis Set: (AUG-CC-PVTZ AUX)
    Blend: AUG-CC-PVTZ-JKFIT

    Orbital Energies [Eh]
    ---------------------

    Doubly Occupied:

       1A    -80.108680     2A    -20.641678     3A    -20.623032
       4A    -20.616155     5A    -20.504361     6A     -7.626829
       7A     -5.525288     8A     -5.524938     9A     -5.523570
      10A     -1.465961    11A     -1.392807    12A     -1.379847
      13A     -1.292604    14A     -0.845473    15A     -0.763104
      16A     -0.740628    17A     -0.695682    18A     -0.638419
      19A     -0.627153    20A     -0.603969    21A     -0.568138
      22A     -0.556004    23A     -0.549992    24A     -0.467625
      25A     -0.460647

  @DF-RHF Final Energy:  -642.18213448373456

   => Energetics <=

    Nuclear Repulsion Energy =            279.9291963197819086
    One-Electron Energy =               -1444.7374936595217605
    Two-Electron Energy =                 522.6261628560054078
    Total Energy =                       -642.1821344837345578

  Dipole Moment: [D]
     X:    -0.9163      Y:     0.6090      Z:     5.7056     Total:     5.8107

  Basis Set: (AUG-CC-PVTZ AUX)
    Blend: AUG-CC-PVTZ-RI
	 Reference Energy          =    -642.1821344837345578 [Eh]
	 Singles Energy            =      -0.0000000000000000 [Eh]
	 Same-Spin Energy          =      -0.2983114818791134 [Eh]
	 Opposite-Spin Energy      =      -0.8463725688650220 [Eh]
	 Correlation Energy        =      -1.1446840507441354 [Eh]
	 Total Energy              =    -643.3268185344786616 [Eh]

	 ================> DF-SCS-MP2 Energies <==================
	-----------------------------------------------------------
	 SCS Same-Spin Scale       =       0.3333333333333333 [-]
	 SCS Opposite-Spin Scale   =       1.2000000000000000 [-]
	 SCS Same-Spin Energy      =      -0.0994371606263711 [Eh]
	 SCS Opposite-Spin Energy  =      -1.0156470826380264 [Eh]
	 SCS Correlation Energy    =      -1.1150842432643975 [Eh]
	 SCS Total Energy          =    -643.2972187269989490 [Eh]
	-----------------------------------------------------------

    SAPT Results
  --------------------------------------------------------------------------------------------------------
    Electrostatics                -78.86501813 [mEh]     -49.48854602 [kcal/mol]    -207.06007656 [kJ/mol]
      Elst10,r                    -81.97946890 [mEh]     -51.44289339 [kcal/mol]    -215.23706595 [kJ/mol]
      Elst12,r                      3.37514218 [mEh]       2.11793369 [kcal/mol]       8.86143457 [kJ/mol]
      Elst13,r                     -0.26069140 [mEh]      -0.16358633 [kcal/mol]      -0.68444519 [kJ/mol]

    Exchange                       71.70567612 [mEh]      44.99599109 [kcal/mol]     188.26322672 [kJ/mol]
      Exch10                       62.18685340 [mEh]      39.02283965 [kcal/mol]     163.27156110 [kJ/mol]
      Exch10(S^2)                  61.39131268 [mEh]      38.52363032 [kcal/mol]     161.18286924 [kJ/mol]
      Exch11(S^2)                   0.77884812 [mEh]       0.48873458 [kcal/mol]       2.04486547 [kJ/mol]
      Exch12(S^2)                   8.73997460 [mEh]       5.48441686 [kcal/mol]      22.94680015 [kJ/mol]

    Induction                     -36.87678867 [mEh]     -23.14053425 [kcal/mol]     -96.81999531 [kJ/mol]
      Ind20,r                     -39.43723423 [mEh]     -24.74723810 [kcal/mol]    -103.54244420 [kJ/mol]
      Ind22                        -5.50972819 [mEh]      -3.45740663 [kcal/mol]     -14.46578936 [kJ/mol]
      Exch-Ind20,r                 18.37429925 [mEh]      11.53004685 [kcal/mol]      48.24171604 [kJ/mol]
      Exch-Ind22                    2.56705107 [mEh]       1.61084887 [kcal/mol]       6.73979167 [kJ/mol]
      delta HF,r (2)              -14.04272959 [mEh]      -8.81194586 [kcal/mol]     -36.86918146 [kJ/mol]
      delta MP2,r (2)               1.17155301 [mEh]       0.73516061 [kcal/mol]       3.07591201 [kJ/mol]

    Dispersion                    -27.07576419 [mEh]     -16.99029854 [kcal/mol]     -71.08740908 [kJ/mol]
      Disp20                      -28.75436982 [mEh]     -18.04363947 [kcal/mol]     -75.49458756 [kJ/mol]
      Disp30                        0.93369728 [mEh]       0.58590389 [kcal/mol]       2.45142186 [kJ/mol]
      Disp21                        3.43009612 [mEh]       2.15241781 [kcal/mol]       9.00571613 [kJ/mol]
      Disp22 (SDQ)                 -1.35184566 [mEh]      -0.84829596 [kcal/mol]      -3.54927028 [kJ/mol]
      Disp22 (T)                   -5.47291199 [mEh]      -3.43430412 [kcal/mol]     -14.36912845 [kJ/mol]
      Est. Disp22 (T)              -6.08908699 [mEh]      -3.82095977 [kcal/mol]     -15.98689569 [kJ/mol]
      Exch-Disp20                   4.75574488 [mEh]       2.98427497 [kcal/mol]      12.48620646 [kJ/mol]

  Total HF                        -54.89828007 [mEh]     -34.44919084 [kcal/mol]    -144.13541447 [kJ/mol]
  Total SAPT0                     -78.89690501 [mEh]     -49.50855535 [kcal/mol]    -207.14379557 [kJ/mol]
  Total SAPT2                     -68.94561722 [mEh]     -43.26402798 [kcal/mol]    -181.01669308 [kJ/mol]
  Total SAPT2+                    -72.95645375 [mEh]     -45.78086590 [kcal/mol]    -191.54714292 [kJ/mol]
  Total SAPT2+(3)                 -72.28344787 [mEh]     -45.35854834 [kcal/mol]    -189.78016625 [kJ/mol]
  Total SAPT2+dMP2                -71.78490073 [mEh]     -45.04570528 [kcal/mol]    -188.47123091 [kJ/mol]
  Total SAPT2+(3)dMP2             -71.11189486 [mEh]     -44.62338772 [kcal/mol]    -186.70425424 [kJ/mol]

  Special recipe for scaled SAPT0 (see Manual):
    Electrostatics sSAPT0         -81.97946890 [mEh]     -51.44289339 [kcal/mol]    -215.23706595 [kJ/mol]
    Exchange sSAPT0                62.18685340 [mEh]      39.02283965 [kcal/mol]     163.27156110 [kJ/mol]
    Induction sSAPT0              -34.38205685 [mEh]     -21.57506640 [kcal/mol]     -90.27007782 [kJ/mol]
    Dispersion sSAPT0             -23.81133651 [mEh]     -14.94183924 [kcal/mol]     -62.51665539 [kJ/mol]
  Total sSAPT0                    -77.98600886 [mEh]     -48.93695938 [kcal/mol]    -204.75223805 [kJ/mol]
  --------------------------------------------------------------------------------------------------------

*** Psi4 exiting successfully. Buy a developer a beer!
