 Gaussian 16, Revision A.03,
 Gaussian 16:  ES64L-G16RevA.03 25-Dec-2016

 ------------------------------------
 #p 6-311+g(2d,p) nosymm em=gd3 m062x
 ------------------------------------

 -------------------
 Title Card Required
 -------------------
 Symbolic Z-matrix:
 Charge =  0 Multiplicity = 1

                          Input orientation:
 ---------------------------------------------------------------------
 Center     Atomic      Atomic             Coordinates (Angstroms)
 Number     Number       Type             X           Y           Z
 ---------------------------------------------------------------------
      1         15           0       12.141298    6.125611    9.789233
      2          8           0       11.722618    6.674057   11.069336
      3          8           0       10.895422    5.639675    8.928774
      4          1           0       11.242262    5.220915    8.056811
      5          8           0       13.007561    7.043521    8.823861
      6          1           0       12.808703    8.060357    9.018610
      7          8           0       13.033791    4.795409    9.813919
      8          1           0       14.015057    5.069309    9.915310
 ---------------------------------------------------------------------

 SCF Done:  E(RM062X) =  -644.154054077     A.U. after   12 cycles

 Alpha  occ. eigenvalues --  -78.16804 -19.69192 -19.67923 -19.67451 -19.59080
 Alpha  occ. eigenvalues --   -6.97602  -5.09514  -5.09489  -5.09290  -1.24378
 Alpha  occ. eigenvalues --   -1.16983  -1.16277  -1.09800  -0.72800  -0.65919
 Alpha  occ. eigenvalues --   -0.64003  -0.56460  -0.55382  -0.50800  -0.48926
 Alpha  occ. eigenvalues --   -0.47700  -0.45318  -0.43948  -0.38922  -0.38360
 Alpha virt. eigenvalues --   -0.02098   0.01582   0.01959   0.04713   0.09284
 Alpha virt. eigenvalues --    0.10163   0.12312   0.14624   0.15029   0.15978
 Alpha virt. eigenvalues --    0.17602   0.18057   0.18751   0.19939   0.21474

 Mulliken charges:
               1
     1  P    1.253340
     2  O   -0.590533
     3  O   -0.495989
     4  H    0.307933
     5  O   -0.588449
     6  H    0.343933
     7  O   -0.551286
     8  H    0.321052
 Sum of Mulliken charges =  -0.00000

 Dipole moment (field-independent basis, Debye):
    X=              2.7301    Y=              0.5730    Z=             -3.4375  Tot=              4.4270
 Quadrupole moment (field-independent basis, Debye-Ang):
   XX=             32.4189   YY=            -24.6096   ZZ=           -104.3222
   XY=             24.0832   XZ=            -11.7602   YZ=            -16.2125

 Normal termination of Gaussian 16 at Mon Jul 10 16:07:32 2023.
