 Gaussian 16, Revision A.03,
 Gaussian 16:  ES64L-G16RevA.03 25-Dec-2016

 ------------------------------------
 #p 6-311+g(2d,p) nosymm em=gd3 m062x
 ------------------------------------

 -------------------
 Title Card Required
 -------------------
 Symbolic Z-matrix:
 Charge =  0 Multiplicity = 1

                          Input orientation:
 ---------------------------------------------------------------------
 Center     Atomic      Atomic             Coordinates (Angstroms)
 Number     Number       Type             X           Y           Z
 ---------------------------------------------------------------------
      1          6           0       13.034286   10.817029    8.591990
      2          6           0       12.843564   12.168927    8.898038
      3          6           0       12.165064   12.496934   10.071403
      4          6           0       11.700454   11.477486   10.898311
      5          6           0       11.931921   10.147298   10.521781
      6          7           0       12.586743    9.828290    9.389868
      7          1           0       12.000705   13.540882   10.337065
      8          1           0       13.559281   10.497514    7.684441
      9          1           0       13.216710   12.942865    8.234467
     10          1           0       11.168211   11.701594   11.818301
     11          1           0       11.586357    9.302335   11.138490
 ---------------------------------------------------------------------

 SCF Done:  E(RM062X) =  -248.244720602     A.U. after   12 cycles

 Alpha  occ. eigenvalues --  -14.75051 -10.58412 -10.58329 -10.56654 -10.55703
 Alpha  occ. eigenvalues --  -10.55698  -1.04992  -0.90691  -0.86241  -0.71815
 Alpha  occ. eigenvalues --   -0.71447  -0.60854  -0.55194  -0.54689  -0.50124
 Alpha  occ. eigenvalues --   -0.47397  -0.47258  -0.43074  -0.34796  -0.32525
 Alpha  occ. eigenvalues --   -0.32093
 Alpha virt. eigenvalues --   -0.00348   0.00683   0.01147   0.02547   0.03176
 Alpha virt. eigenvalues --    0.04934   0.05383   0.06102   0.07240   0.09057
 Alpha virt. eigenvalues --    0.09326   0.09673   0.09886   0.13419   0.13888

 Mulliken charges:
               1
     1  C   -0.150113
     2  C    0.019179
     3  C   -0.208135
     4  C    0.019208
     5  C   -0.150949
     6  N   -0.193537
     7  H    0.132356
     8  H    0.132450
     9  H    0.133071
    10  H    0.133065
    11  H    0.133406
 Sum of Mulliken charges =  -0.00000

 Dipole moment (field-independent basis, Debye):
    X=             -0.3432    Y=              2.1592    Z=              0.5530  Tot=              2.2551
 Quadrupole moment (field-independent basis, Debye-Ang):
   XX=            -44.8437   YY=             12.5644   ZZ=            -21.0658
   XY=             23.8706   XZ=             -0.3445   YZ=             25.4250

 Normal termination of Gaussian 16 at Mon Jul 10 16:07:09 2023.
