 Gaussian 16, Revision A.03,
 Gaussian 16:  ES64L-G16RevA.03 25-Dec-2016

 -------------------------------------------------------
 #p B3LYP/6-311+G(2d,p) opt freq scrf(smd,solvent=water)
 -------------------------------------------------------

 -------------------
 Title Card Required
 -------------------
 Symbolic Z-matrix:
 Charge =  0 Multiplicity = 1

 SCF Done:  E(RB3LYP) =  -1560.80667514     A.U. after   13 cycles
 SCF Done:  E(RB3LYP) =  -1560.82649107     A.U. after   11 cycles
 SCF Done:  E(RB3LYP) =  -1560.82520498     A.U. after   12 cycles
 SCF Done:  E(RB3LYP) =  -1560.83623744     A.U. after   11 cycles
 SCF Done:  E(RB3LYP) =  -1560.83119272     A.U. after   11 cycles
 SCF Done:  E(RB3LYP) =  -1560.83897870     A.U. after   12 cycles
 SCF Done:  E(RB3LYP) =  -1560.84053912     A.U. after   11 cycles
 SCF Done:  E(RB3LYP) =  -1560.84192076     A.U. after   11 cycles
 SCF Done:  E(RB3LYP) =  -1560.84275459     A.U. after   11 cycles
 SCF Done:  E(RB3LYP) =  -1560.84293412     A.U. after   10 cycles
 SCF Done:  E(RB3LYP) =  -1560.84355781     A.U. after    7 cycles
 SCF Done:  E(RB3LYP) =  -1560.84357333     A.U. after    8 cycles
 SCF Done:  E(RB3LYP) =  -1560.84358059     A.U. after    8 cycles
 SCF Done:  E(RB3LYP) =  -1560.84358178     A.U. after    7 cycles
 SCF Done:  E(RB3LYP) =  -1560.84358168     A.U. after    6 cycles
 SCF Done:  E(RB3LYP) =  -1560.84358116     A.U. after    7 cycles
 SCF Done:  E(RB3LYP) =  -1560.84358111     A.U. after    6 cycles
 SCF Done:  E(RB3LYP) =  -1560.84358192     A.U. after    7 cycles
 SCF Done:  E(RB3LYP) =  -1560.84358095     A.U. after    7 cycles
 Optimization completed.
    -- Stationary point found.
 Normal termination of Gaussian 16 at Sun Dec 11 12:37:00 2022.

 ----------------------------------------------------------------------
 #P Geom=AllCheck Guess=TCheck SCRF=Check GenChk RB3LYP/6-311+G(2d,p) F
 req
 ----------------------------------------------------------------------

 Structure from the checkpoint file:  "/data0/home/software/g16/scratch/Gau-1487900.chk"
 -------------------
 Title Card Required
 -------------------
 Charge =  0 Multiplicity = 1

                         Standard orientation:
 ---------------------------------------------------------------------
 Center     Atomic      Atomic             Coordinates (Angstroms)
 Number     Number       Type             X           Y           Z
 ---------------------------------------------------------------------
      1          6           0       -3.092941   -2.071357   -1.304179
      2          1           0       -3.587926   -1.510602   -2.093650
      3          1           0       -3.656755   -2.970983   -1.069017
      4          1           0       -2.078552   -2.327617   -1.600148
      5          6           0       -2.255432    0.044454   -0.432988
      6          1           0       -2.819190    0.515084   -1.238200
      7          1           0       -1.307184   -0.305422   -0.832848
      8          6           0       -2.340590   -1.984266    1.014148
      9          1           0       -1.311149   -2.164484    0.712039
     10          1           0       -2.372021   -1.414786    1.938239
     11          1           0       -2.866546   -2.926896    1.145740
     12          6           0       -4.433268   -0.889839    0.353274
     13          1           0       -4.962958   -1.826279    0.511892
     14          1           0       -4.410180   -0.320567    1.277536
     15          1           0       -4.911206   -0.315461   -0.437130
     16          6           0       -2.043219    1.025783    0.713092
     17          1           0       -1.438796    0.586540    1.506938
     18          1           0       -3.002314    1.303733    1.152893
     19          6           0       -1.400087    2.331866    0.245167
     20          1           0       -1.486708    3.090593    1.023322
     21          1           0       -1.861616    2.720745   -0.663923
     22          7           0       -3.031310   -1.213532   -0.072057
     23         16           0        0.369003    2.264836   -0.099420
     24          8           0        1.018226    1.731998    1.133801
     25          8           0        0.564757    1.339108   -1.254194
     26          8           0        0.775023    3.643862   -0.406568
     27         15           0        2.558905   -1.380910    0.045693
     28          8           0        1.578369   -2.475749    0.240446
     29          8           0        2.394021   -0.552465   -1.292866
     30          1           0        1.695307    0.168476   -1.264744
     31          8           0        2.644422   -0.337223    1.232838
     32          1           0        2.008280    0.436538    1.172235
     33          8           0        4.021841   -1.996059   -0.051224
     34          1           0        4.721000   -1.335229   -0.180404
 ---------------------------------------------------------------------

 SCF Done:  E(RB3LYP) =  -1560.84358095     A.U. after    1 cycles

 The electronic state is 1-A.
 Alpha  occ. eigenvalues --  -89.05400 -77.19162 -19.16304 -19.14731 -19.14714
 Alpha  occ. eigenvalues --  -19.11736 -19.11724 -19.11040 -19.09416 -14.43716
 Alpha  occ. eigenvalues --  -10.21891 -10.20915 -10.20907 -10.20831 -10.20227
 Alpha  occ. eigenvalues --  -10.18559  -8.11035  -6.66937  -6.07386  -6.07328
 Alpha  occ. eigenvalues --   -6.07181  -4.83245  -4.83225  -4.82965  -1.13163
 Alpha  occ. eigenvalues --   -1.10415  -1.03893  -1.02829  -1.01321  -0.99693
 Alpha  occ. eigenvalues --   -0.99493  -0.97672  -0.81734  -0.74366  -0.74196
 Alpha  occ. eigenvalues --   -0.74014  -0.66696  -0.64553  -0.61119  -0.58565
 Alpha  occ. eigenvalues --   -0.58069  -0.55789  -0.52677  -0.52257  -0.50860
 Alpha  occ. eigenvalues --   -0.50258  -0.48751  -0.47719  -0.47678  -0.45570
 Alpha  occ. eigenvalues --   -0.44635  -0.44182  -0.42876  -0.41813  -0.41642
 Alpha  occ. eigenvalues --   -0.40637  -0.40130  -0.39643  -0.39577  -0.39544
 Alpha  occ. eigenvalues --   -0.38600  -0.37688  -0.37282  -0.37044  -0.36528
 Alpha  occ. eigenvalues --   -0.36237  -0.35909  -0.35758  -0.32054  -0.32004
 Alpha  occ. eigenvalues --   -0.31613  -0.30841  -0.30350  -0.28454
 Alpha virt. eigenvalues --   -0.00616   0.00936   0.01567   0.02282   0.03123
 Alpha virt. eigenvalues --    0.03746   0.03995   0.04387   0.04768   0.04880
 Alpha virt. eigenvalues --    0.05273   0.06274   0.06493   0.06903   0.07478

 Mulliken charges:
               1
     1  C   -0.296412
     2  H    0.194342
     3  H    0.191313
     4  H    0.197240
     5  C   -0.340364
     6  H    0.187412
     7  H    0.204996
     8  C   -0.314764
     9  H    0.206539
    10  H    0.194890
    11  H    0.192442
    12  C   -0.291455
    13  H    0.191355
    14  H    0.192507
    15  H    0.197569
    16  C    0.017756
    17  H    0.173814
    18  H    0.157331
    19  C   -0.643237
    20  H    0.207909
    21  H    0.209475
    22  N   -0.015120
    23  S    1.270323
    24  O   -0.789440
    25  O   -0.796158
    26  O   -0.660178
    27  P    1.547601
    28  O   -0.820133
    29  O   -0.759743
    30  H    0.497651
    31  O   -0.749814
    32  H    0.490272
    33  O   -0.593650
    34  H    0.347734
 Sum of Mulliken charges =  -0.00000

 Dipole moment (field-independent basis, Debye):
    X=            -22.1724    Y=             -5.9152    Z=              0.3272  Tot=             22.9502
 Quadrupole moment (field-independent basis, Debye-Ang):
   XX=            -56.3981   YY=           -144.3746   ZZ=           -115.8108
   XY=             14.4675   XZ=             -2.3710   YZ=              5.8883

  Exact polarizability: 205.029   1.425 211.191  -1.262  -1.052 190.770
 Approx polarizability: 200.749   0.888 208.969  -0.510  -1.483 195.987

                      1                      2                      3
                      A                      A                      A
 Frequencies --     24.0712                36.8692                39.6020
 Red. masses --      6.8946                 4.0960                 9.4897
 Frc consts  --      0.0024                 0.0033                 0.0088
 IR Inten    --     13.2842                 3.3534                14.6604

                      4                      5                      6
                      A                      A                      A
 Frequencies --     57.0639                62.6314                81.7057
 Red. masses --      6.0619                 3.6971                 5.0094
 Frc consts  --      0.0116                 0.0085                 0.0197
 IR Inten    --     15.2737                 5.2528                 8.3134

                      7                      8                      9
                      A                      A                      A
 Frequencies --    113.4632               116.5356               140.6345
 Red. masses --      9.1469                 2.5227                 7.1084
 Frc consts  --      0.0694                 0.0202                 0.0828
 IR Inten    --      2.3146                 3.8899                26.5328

                     10                     11                     12
                      A                      A                      A
 Frequencies --    148.3216               190.4220               214.0969
 Red. masses --      5.3827                 3.5673                 2.3293
 Frc consts  --      0.0698                 0.0762                 0.0629
 IR Inten    --     28.7185                15.9824                 7.1821

                     13                     14                     15
                      A                      A                      A
 Frequencies --    242.9150               250.2223               279.0785
 Red. masses --      1.3379                 4.1128                 1.7604
 Frc consts  --      0.0465                 0.1517                 0.0808
 IR Inten    --      4.1293                15.1909               148.5578

                     16                     17                     18
                      A                      A                      A
 Frequencies --    289.7619               302.7081               326.8721
 Red. masses --      1.0503                 1.0768                 3.3832
 Frc consts  --      0.0520                 0.0581                 0.2130
 IR Inten    --      1.0143                 0.0770                13.9428

                     19                     20                     21
                      A                      A                      A
 Frequencies --    361.6669               364.2558               371.9034
 Red. masses --      5.6336                 2.3098                 2.5190
 Frc consts  --      0.4342                 0.1806                 0.2053
 IR Inten    --     43.2108                 4.4438                 4.6682

                     22                     23                     24
                      A                      A                      A
 Frequencies --    373.0216               430.2952               440.1804
 Red. masses --      2.4126                 3.9104                 8.3489
 Frc consts  --      0.1978                 0.4266                 0.9531
 IR Inten    --     59.6359                21.6856                81.1653

                     25                     26                     27
                      A                      A                      A
 Frequencies --    454.1852               455.4060               464.0970
 Red. masses --     13.1614                 2.3479                 2.6428
 Frc consts  --      1.5996                 0.2869                 0.3354
 IR Inten    --     47.7292                 1.0861                 1.2310

                     28                     29                     30
                      A                      A                      A
 Frequencies --    479.3553               497.3344               505.0811
 Red. masses --      7.6332                 8.2261                 7.5647
 Frc consts  --      1.0334                 1.1988                 1.1370
 IR Inten    --      2.5837                58.6274               129.6794

                     31                     32                     33
                      A                      A                      A
 Frequencies --    526.2725               563.0048               697.8533
 Red. masses --      3.9263                 3.3285                 4.1183
 Frc consts  --      0.6407                 0.6216                 1.1817
 IR Inten    --     57.9896                17.5725                70.0465

                     34                     35                     36
                      A                      A                      A
 Frequencies --    731.9124               753.5006               767.9377
 Red. masses --      1.0382                 2.7677                 1.1329
 Frc consts  --      0.3277                 0.9258                 0.3936
 IR Inten    --     95.1971                 5.8703               295.7253

                     37                     38                     39
                      A                      A                      A
 Frequencies --    803.7854               836.2574               856.9130
 Red. masses --      1.4931                11.2705                 1.9350
 Frc consts  --      0.5684                 4.6438                 0.8371
 IR Inten    --     19.5226               103.8096                 7.1637

                     40                     41                     42
                      A                      A                      A
 Frequencies --    908.9767               920.3932               924.1051
 Red. masses --     12.7597                 9.8140                 3.2284
 Frc consts  --      6.2115                 4.8983                 1.6244
 IR Inten    --    571.7856               301.2375                75.5950

                     43                     44                     45
                      A                      A                      A
 Frequencies --    949.5673               972.1094               984.3651
 Red. masses --      2.7854                 2.9003                 7.8299
 Frc consts  --      1.4797                 1.6148                 4.4701
 IR Inten    --      2.8427                28.5216               363.6494

                     46                     47                     48
                      A                      A                      A
 Frequencies --   1020.9802              1042.5971              1073.4051
 Red. masses --      2.2308                 3.4058                 3.0710
 Frc consts  --      1.3701                 2.1813                 2.0848
 IR Inten    --     30.4351               488.1116               304.2397

                     49                     50                     51
                      A                      A                      A
 Frequencies --   1076.5847              1081.8660              1090.4792
 Red. masses --      1.2319                 2.1822                 1.1963
 Frc consts  --      0.8412                 1.5048                 0.8381
 IR Inten    --    163.9812                10.9659                 0.1598

                     52                     53                     54
                      A                      A                      A
 Frequencies --   1133.3180              1143.8830              1156.3690
 Red. masses --      4.3870                 1.4958                 1.3651
 Frc consts  --      3.3199                 1.1531                 1.0755
 IR Inten    --    642.9811               163.2662                24.5231

                     55                     56                     57
                      A                      A                      A
 Frequencies --   1207.4159              1209.7937              1214.1676
 Red. masses --      1.1956                 1.2071                 4.6891
 Frc consts  --      1.0270                 1.0409                 4.0729
 IR Inten    --     97.4435               192.2314               534.9012

                     58                     59                     60
                      A                      A                      A
 Frequencies --   1237.8561              1270.7856              1294.1709
 Red. masses --      1.2977                 1.7806                 1.5643
 Frc consts  --      1.1715                 1.6942                 1.5437
 IR Inten    --      6.7723                 3.0798                 1.7856

                     61                     62                     63
                      A                      A                      A
 Frequencies --   1300.2575              1304.9730              1349.9650
 Red. masses --      1.8322                 1.1420                 1.3381
 Frc consts  --      1.8251                 1.1458                 1.4367
 IR Inten    --      0.3306                12.2207                 1.7191

                     64                     65                     66
                      A                      A                      A
 Frequencies --   1366.3066              1383.1356              1434.4816
 Red. masses --      1.3431                 1.1904                 1.2562
 Frc consts  --      1.4772                 1.3418                 1.5230
 IR Inten    --      0.4797                 2.3685                 3.6577

                     67                     68                     69
                      A                      A                      A
 Frequencies --   1444.4978              1456.4667              1457.0801
 Red. masses --      1.1004                 1.1411                 1.1426
 Frc consts  --      1.3528                 1.4262                 1.4293
 IR Inten    --     16.7933                 0.4540                 1.4455

                     70                     71                     72
                      A                      A                      A
 Frequencies --   1475.3802              1477.6240              1480.2399
 Red. masses --      1.0946                 1.0516                 1.0429
 Frc consts  --      1.4038                 1.3528                 1.3464
 IR Inten    --      2.7133                 0.9674                 1.1886

                     73                     74                     75
                      A                      A                      A
 Frequencies --   1482.8230              1486.8945              1500.5818
 Red. masses --      1.0484                 1.1132                 1.0909
 Frc consts  --      1.3582                 1.4501                 1.4472
 IR Inten    --      2.1765                 2.3775                18.7024

                     76                     77                     78
                      A                      A                      A
 Frequencies --   1505.2777              1507.2192              1514.8129
 Red. masses --      1.0639                 1.0917                 1.0771
 Frc consts  --      1.4203                 1.4612                 1.4562
 IR Inten    --     45.4956                39.0725                77.1357

                     79                     80                     81
                      A                      A                      A
 Frequencies --   3012.2132              3064.5211              3065.6654
 Red. masses --      1.0791                 1.0716                 1.0623
 Frc consts  --      5.7685                 5.9295                 5.8821
 IR Inten    --    276.1688              4010.0130              1045.9487

                     82                     83                     84
                      A                      A                      A
 Frequencies --   3071.6417              3075.4172              3079.1700
 Red. masses --      1.0602                 1.0310                 1.0317
 Frc consts  --      5.8938                 5.7452                 5.7633
 IR Inten    --      2.4975                 8.6641                 9.5155

                     85                     86                     87
                      A                      A                      A
 Frequencies --   3084.2763              3087.0237              3107.0909
 Red. masses --      1.0446                 1.0508                 1.1004
 Frc consts  --      5.8548                 5.9002                 6.2590
 IR Inten    --     15.4543                 4.2292                 6.7324

                     88                     89                     90
                      A                      A                      A
 Frequencies --   3126.4367              3151.2472              3167.1471
 Red. masses --      1.1060                 1.1053                 1.1086
 Frc consts  --      6.3697                 6.4667                 6.5521
 IR Inten    --      2.4639                 2.7626                 0.2867

                     91                     92                     93
                      A                      A                      A
 Frequencies --   3168.0650              3170.4544              3172.2549
 Red. masses --      1.1085                 1.1081                 1.1081
 Frc consts  --      6.5548                 6.5627                 6.5700
 IR Inten    --      0.1980                 5.9365                10.2162

                     94                     95                     96
                      A                      A                      A
 Frequencies --   3175.5956              3181.3713              3750.7093
 Red. masses --      1.1082                 1.1073                 1.0659
 Frc consts  --      6.5847                 6.6033                 8.8347
 IR Inten    --      2.6490                 6.6310               243.9416

 - Thermochemistry -
 -------------------
 Temperature   298.150 Kelvin.  Pressure   1.00000 Atm.
 Atom     1 has atomic number  6 and mass  12.00000

 Molecular mass:   279.05416 amu.
 Principal axes and moments of inertia in atomic units:
                           1         2         3
     Eigenvalues --  3975.219196280.995919039.28280
           X            0.99882   0.04844  -0.00148
           Y           -0.04843   0.99881   0.00653
           Z            0.00179  -0.00645   0.99998
 This molecule is an asymmetric top.
 Rotational symmetry number  1.
 Warning -- assumption of classical behavior for rotation
           may cause significant error
 Rotational temperatures (Kelvin)      0.02179     0.01379     0.00958
 Rotational constants (GHZ):           0.45400     0.28733     0.19966
 Zero-point vibrational energy     718971.8 (Joules/Mol)
                                  171.83839 (Kcal/Mol)
 Warning -- explicit consideration of  32 degrees of freedom as
           vibrations may cause significant error
 Vibrational temperatures:     34.63    53.05    56.98    82.10    90.11
          (Kelvin)            117.56   163.25   167.67   202.34   213.40
                              273.97   308.04   349.50   360.01   401.53
                              416.90   435.53   470.30   520.36   524.08
                              535.09   536.69   619.10   633.32   653.47
                              655.23   667.73   689.69   715.55   726.70
                              757.19   810.04  1004.06  1053.06  1084.12
                             1104.89  1156.47  1203.19  1232.91  1307.81
                             1324.24  1329.58  1366.22  1398.65  1416.28
                             1468.96  1500.06  1544.39  1548.97  1556.56
                             1568.96  1630.59  1645.79  1663.76  1737.20
                             1740.62  1746.92  1781.00  1828.38  1862.02
                             1870.78  1877.57  1942.30  1965.81  1990.02
                             2063.90  2078.31  2095.53  2096.41  2122.74
                             2125.97  2129.74  2133.45  2139.31  2159.00
                             2165.76  2168.55  2179.48  4333.90  4409.16
                             4410.81  4419.41  4424.84  4430.24  4437.59
                             4441.54  4470.41  4498.25  4533.94  4556.82
                             4558.14  4561.58  4564.17  4568.97  4577.28
                             5396.43

 Zero-point correction=                           0.273842 (Hartree/Particle)
 Thermal correction to Energy=                    0.293272
 Thermal correction to Enthalpy=                  0.294216
 Thermal correction to Gibbs Free Energy=         0.224613
 Sum of electronic and zero-point Energies=          -1560.569739
 Sum of electronic and thermal Energies=             -1560.550309
 Sum of electronic and thermal Enthalpies=           -1560.549365
 Sum of electronic and thermal Free Energies=        -1560.618968

                     E (Thermal)             CV                S
                      KCal/Mol        Cal/Mol-Kelvin    Cal/Mol-Kelvin
 Total                  184.031             71.386            146.493
 Electronic               0.000              0.000              0.000
 Translational            0.889              2.981             42.777
 Rotational               0.889              2.981             33.778
 Vibrational            182.253             65.425             69.938
 Vibration     1          0.593              1.985              6.266
 Vibration     2          0.594              1.982              5.421
 Vibration     3          0.594              1.981              5.279
 Vibration     4          0.596              1.975              4.556
 Vibration     5          0.597              1.972              4.373
 Vibration     6          0.600              1.962              3.849
 Vibration     7          0.607              1.938              3.209
 Vibration     8          0.608              1.936              3.157
 Vibration     9          0.615              1.913              2.795
 Vibration    10          0.618              1.904              2.694
 Vibration    11          0.634              1.853              2.224
 Vibration    12          0.644              1.819              2.008
 Vibration    13          0.659              1.774              1.781
 Vibration    14          0.663              1.762              1.729
 Vibration    15          0.679              1.712              1.539
 Vibration    16          0.686              1.693              1.475
 Vibration    17          0.694              1.669              1.402
 Vibration    18          0.711              1.622              1.275
 Vibration    19          0.736              1.551              1.115
 Vibration    20          0.738              1.546              1.104
 Vibration    21          0.744              1.530              1.072
 Vibration    22          0.744              1.528              1.067
 Vibration    23          0.791              1.404              0.858
 Vibration    24          0.800              1.383              0.826
 Vibration    25          0.813              1.352              0.783
 Vibration    26          0.814              1.349              0.780
 Vibration    27          0.822              1.330              0.754
 Vibration    28          0.836              1.296              0.712
 Vibration    29          0.853              1.256              0.665
 Vibration    30          0.860              1.239              0.646
 Vibration    31          0.881              1.192              0.596
 Vibration    32          0.919              1.111              0.518

                           ! Non-Optimized Parameters !
 Normal termination of Gaussian 16 at Sun Dec 11 12:52:17 2022.
