                               Psi4 1.3.2 release

  ==> Input File <==

--------------------------------------------------------------------------
memory 200 GB

molecule dimer {
0 1
C     14.55900000   11.57700000   16.27899900
H     14.83200000   10.54300000   16.02300100
H     14.47400000   11.66400000   17.37500000
H     15.40900000   12.23100000   15.97500000
C     13.57100000   12.16400000   14.10700000
H     14.18000000   11.30700000   13.75700000
H     14.22300000   13.07900000   13.99000000
C     12.81100000   13.29300000   16.18899900
H     13.66500000   14.00100000   16.34600100
H     12.13400000   13.84300000   15.49700000
H     12.31400000   13.14900000   17.15399900
C     12.25200000   10.93700000   15.82600000
H     12.16100000   10.69300000   16.89800100
H     11.25700000   11.27100000   15.47800000
H     12.50400000   10.01100000   15.28500000
C     12.29400000   12.29400000   13.26400000
H     11.51600000   12.88100000   13.80300000
H     11.85000000   11.29500000   13.08400000
C     12.58700000   12.96200000   11.92800000
H     11.70800000   12.89700000   11.26300000
H     13.40500000   12.45400000   11.38900000
N     13.28700000   12.00100000   15.59500000
S     13.03300000   14.73500000   12.09800000
O     12.59300000   15.07600000   13.49000000
O     14.52200000   14.70000000   12.03100000
O     12.33900000   15.41900000   11.02000000
--
0 1
P     15.59200000   15.93200000   15.08500000
O     15.59700000   14.60100000   15.71100000
O     16.21200000   16.04700100   13.64200000
H     15.58900000   15.49000000   12.95400000
O     14.17200000   16.63600000   15.07800000
H     13.50200000   16.06300000   14.47400000
O     16.48399900   16.93400000   15.95100000
H     16.46299900   17.84800000   15.47300000
}

set {
    scf_type DF
    freeze_core True
    basis aug-cc-pVTZ
}

energy('sapt2+(3)dmp2')
--------------------------------------------------------------------------

  //              Dimer HF             //
    Molecular point group: c1
  Charge       = 0
  Multiplicity = 1
  Basis Set: AUG-CC-PVTZ
    Blend: AUG-CC-PVTZ
  Basis Set: (AUG-CC-PVTZ AUX)
    Blend: AUG-CC-PVTZ-JKFIT
  @DF-RHF Final Energy: -1554.86409781409429
    Total Energy =                      -1554.8640978140942934
  Basis Set: (AUG-CC-PVTZ AUX)
    Blend: AUG-CC-PVTZ-RI
	 Reference Energy          =   -1554.8640978140942934 [Eh]
	 Singles Energy            =      -0.0000000000000000 [Eh]
	 Same-Spin Energy          =      -0.8530754628444477 [Eh]
	 Opposite-Spin Energy      =      -2.5350074378157528 [Eh]
	 Correlation Energy        =      -3.3880829006602005 [Eh]
	 Total Energy              =   -1558.2521807147545587 [Eh]
	 SCS Total Energy          =   -1558.1904652270879978 [Eh]
  //            Monomer A HF           //
    Molecular point group: c1
  Multiplicity = 1
  Basis Set: AUG-CC-PVTZ
    Blend: AUG-CC-PVTZ
  Basis Set: (AUG-CC-PVTZ AUX)
    Blend: AUG-CC-PVTZ-JKFIT
  @DF-RHF Final Energy:  -912.61334711178756
    Total Energy =                       -912.6133471117875615
  Basis Set: (AUG-CC-PVTZ AUX)
	 Singles Energy            =      -0.0000000000000000 [Eh]
	 Same-Spin Energy          =      -0.5457958786589042 [Eh]
	 Opposite-Spin Energy      =      -1.6848330405334548 [Eh]
	 Correlation Energy        =      -2.2306289191923589 [Eh]
	 Total Energy              =    -914.8439760309798885 [Eh]
	 SCS Total Energy          =    -914.8170787199807137 [Eh]
  //            Monomer B HF           //
    Molecular point group: c1

    Geometry (in Angstrom), charge = 0, multiplicity = 1:

       Center              X                  Y                   Z               Mass
    ------------   -----------------  -----------------  -----------------  -----------------
      Gh(C)           0.598123308510    -2.735398479894     2.152323709804    12.000000000000
      Gh(H)           0.871123308510    -3.769398479894     1.896325709804     1.007825032230
      Gh(H)           0.513123308510    -2.648398479894     3.248324709804     1.007825032230
      Gh(H)           1.448123308510    -2.081398479894     1.848324709804     1.007825032230
      Gh(C)          -0.389876691490    -2.148398479894    -0.019675290196    12.000000000000
      Gh(H)           0.219123308510    -3.005398479894    -0.369675290196     1.007825032230
      Gh(H)           0.262123308510    -1.233398479894    -0.136675290196     1.007825032230
      Gh(C)          -1.149876691490    -1.019398479894     2.062323709804    12.000000000000
      Gh(H)          -0.295876691490    -0.311398479894     2.219325709804     1.007825032230
      Gh(H)          -1.826876691490    -0.469398479894     1.370324709804     1.007825032230
      Gh(H)          -1.646876691490    -1.163398479894     3.027323709804     1.007825032230
      Gh(C)          -1.708876691490    -3.375398479894     1.699324709804    12.000000000000
      Gh(H)          -1.799876691490    -3.619398479894     2.771325709804     1.007825032230
      Gh(H)          -2.703876691490    -3.041398479894     1.351324709804     1.007825032230
      Gh(H)          -1.456876691490    -4.301398479894     1.158324709804     1.007825032230
      Gh(C)          -1.666876691490    -2.018398479894    -0.862675290196    12.000000000000
      Gh(H)          -2.444876691490    -1.431398479894    -0.323675290196     1.007825032230
      Gh(H)          -2.110876691490    -3.017398479894    -1.042675290196     1.007825032230
      Gh(C)          -1.373876691490    -1.350398479894    -2.198675290196    12.000000000000
      Gh(H)          -2.252876691490    -1.415398479894    -2.863675290196     1.007825032230
      Gh(H)          -0.555876691490    -1.858398479894    -2.737675290196     1.007825032230
      Gh(N)          -0.673876691490    -2.311398479894     1.468324709804    14.003074004430
      Gh(S)          -0.927876691490     0.422601520106    -2.028675290196    31.972071174400
      Gh(O)          -1.367876691490     0.763601520106    -0.636675290196    15.994914619570
      Gh(O)           0.561123308510     0.387601520106    -2.095675290196    15.994914619570
      Gh(O)          -1.621876691490     1.106601520106    -3.106675290196    15.994914619570
         P            1.631123308510     1.619601520106     0.958324709804    30.973761998420
         O            1.636123308510     0.288601520106     1.584324709804    15.994914619570
         O            2.251123308510     1.734602520106    -0.484675290196    15.994914619570
         H            1.628123308510     1.177601520106    -1.172675290196     1.007825032230
         O            0.211123308510     2.323601520106     0.951324709804    15.994914619570
         H           -0.458876691490     1.750601520106     0.347324709804     1.007825032230
         O            2.523122308510     2.621601520106     1.824324709804    15.994914619570
         H            2.502122308510     3.535601520106     1.346324709804     1.007825032230

  Charge       = 0
  Multiplicity = 1
  Basis Set: AUG-CC-PVTZ
    Blend: AUG-CC-PVTZ
  Basis Set: (AUG-CC-PVTZ AUX)
    Blend: AUG-CC-PVTZ-JKFIT

    Orbital Energies [Eh]
    ---------------------

    Doubly Occupied:

       1A    -80.108297     2A    -20.639365     3A    -20.631567
       4A    -20.615445     5A    -20.502199     6A     -7.626471
       7A     -5.524917     8A     -5.524630     9A     -5.523135
      10A     -1.466286    11A     -1.393036    12A     -1.380602
      13A     -1.288235    14A     -0.843316    15A     -0.759533
      16A     -0.739462    17A     -0.697898    18A     -0.636923
      19A     -0.631970    20A     -0.603467    21A     -0.570316
      22A     -0.555421    23A     -0.548039    24A     -0.464076
      25A     -0.458488

  @DF-RHF Final Energy:  -642.17677332468986

   => Energetics <=

    Nuclear Repulsion Energy =            279.9084190853781706
    One-Electron Energy =               -1444.7041895829963778
    Two-Electron Energy =                 522.6189971729282888
    Total Energy =                       -642.1767733246898615

  Dipole Moment: [D]
     X:    -2.2512      Y:     2.6810      Z:    -4.6721     Total:     5.8381

  Basis Set: (AUG-CC-PVTZ AUX)
    Blend: AUG-CC-PVTZ-RI
	 Reference Energy          =    -642.1767733246898615 [Eh]
	 Singles Energy            =      -0.0000000000000000 [Eh]
	 Same-Spin Energy          =      -0.2987414607418237 [Eh]
	 Opposite-Spin Energy      =      -0.8475413643630010 [Eh]
	 Correlation Energy        =      -1.1462828251048247 [Eh]
	 Total Energy              =    -643.3230561497946383 [Eh]

	 ================> DF-SCS-MP2 Energies <==================
	-----------------------------------------------------------
	 SCS Same-Spin Scale       =       0.3333333333333333 [-]
	 SCS Opposite-Spin Scale   =       1.2000000000000000 [-]
	 SCS Same-Spin Energy      =      -0.0995804869139412 [Eh]
	 SCS Opposite-Spin Energy  =      -1.0170496372356010 [Eh]
	 SCS Correlation Energy    =      -1.1166301241495422 [Eh]
	 SCS Total Energy          =    -643.2934034488393991 [Eh]
	-----------------------------------------------------------

    SAPT Results
  --------------------------------------------------------------------------------------------------------
    Electrostatics                -99.92902644 [mEh]     -62.70641080 [kcal/mol]    -262.36362277 [kJ/mol]
      Elst10,r                   -105.13035147 [mEh]     -65.97029153 [kcal/mol]    -276.01969975 [kJ/mol]
      Elst12,r                      6.35359977 [mEh]       3.98694405 [kcal/mol]      16.68137389 [kJ/mol]
      Elst13,r                     -1.15227474 [mEh]      -0.72306332 [kcal/mol]      -3.02529692 [kJ/mol]

    Exchange                       90.13769545 [mEh]      56.56225784 [kcal/mol]     236.65648679 [kJ/mol]
      Exch10                       78.92936865 [mEh]      49.52892659 [kcal/mol]     207.22902883 [kJ/mol]
      Exch10(S^2)                  77.78169378 [mEh]      48.80874973 [kcal/mol]     204.21580888 [kJ/mol]
      Exch11(S^2)                   1.21231032 [mEh]       0.76073621 [kcal/mol]       3.18292030 [kJ/mol]
      Exch12(S^2)                   9.99601648 [mEh]       6.27259504 [kcal/mol]      26.24453765 [kJ/mol]

    Induction                     -49.66310302 [mEh]     -31.16406764 [kcal/mol]    -130.39045902 [kJ/mol]
      Ind20,r                     -50.45339274 [mEh]     -31.65998193 [kcal/mol]    -132.46536439 [kJ/mol]
      Ind22                        -6.16397495 [mEh]      -3.86795268 [kcal/mol]     -16.18351401 [kJ/mol]
      Exch-Ind20,r                 22.06697061 [mEh]      13.84723312 [kcal/mol]      57.93682336 [kJ/mol]
      Exch-Ind22                    2.69595852 [mEh]       1.69173951 [kcal/mol]       7.07823812 [kJ/mol]
      delta HF,r (2)              -19.38997267 [mEh]     -12.16739155 [kcal/mol]     -50.90836622 [kJ/mol]
      delta MP2,r (2)               1.58130821 [mEh]       0.99228588 [kcal/mol]       4.15172412 [kJ/mol]

    Dispersion                    -30.00266125 [mEh]     -18.82695417 [kcal/mol]     -78.77197626 [kJ/mol]
      Disp20                      -32.70846698 [mEh]     -20.52487290 [kcal/mol]     -85.87606823 [kJ/mol]
      Disp30                        1.08742143 [mEh]       0.68236725 [kcal/mol]       2.85502457 [kJ/mol]
      Disp21                        3.72054453 [mEh]       2.33467694 [kcal/mol]       9.76828831 [kJ/mol]
      Disp22 (SDQ)                 -1.28620020 [mEh]      -0.80710281 [kcal/mol]      -3.37691817 [kJ/mol]
      Disp22 (T)                   -5.98551303 [mEh]      -3.75596613 [kcal/mol]     -15.71496230 [kJ/mol]
      Est. Disp22 (T)              -6.67805230 [mEh]      -4.19054108 [kcal/mol]     -17.53322389 [kJ/mol]
      Exch-Disp20                   5.86209227 [mEh]       3.67851844 [kcal/mol]      15.39092115 [kJ/mol]

  Total HF                        -73.97737762 [mEh]     -46.42150530 [kcal/mol]    -194.22757817 [kJ/mol]
  Total SAPT0                    -100.82375232 [mEh]     -63.26785976 [kcal/mol]    -264.71272526 [kJ/mol]
  Total SAPT2                     -86.72984219 [mEh]     -54.42379763 [kcal/mol]    -227.70916929 [kJ/mol]
  Total SAPT2+                    -90.97355016 [mEh]     -57.08676459 [kcal/mol]    -238.85102304 [kJ/mol]
  Total SAPT2+(3)                 -91.03840347 [mEh]     -57.12746066 [kcal/mol]    -239.02129539 [kJ/mol]
  Total SAPT2+dMP2                -89.39224195 [mEh]     -56.09447871 [kcal/mol]    -234.69929892 [kJ/mol]
  Total SAPT2+(3)dMP2             -89.45709527 [mEh]     -56.13517478 [kcal/mol]    -234.86957127 [kJ/mol]

  Special recipe for scaled SAPT0 (see Manual):
    Electrostatics sSAPT0        -105.13035147 [mEh]     -65.97029153 [kcal/mol]    -276.01969975 [kJ/mol]
    Exchange sSAPT0                78.92936865 [mEh]      49.52892659 [kcal/mol]     207.22902883 [kJ/mol]
    Induction sSAPT0              -46.78511162 [mEh]     -29.35810077 [kcal/mol]    -122.83429363 [kJ/mol]
    Dispersion sSAPT0             -26.58304026 [mEh]     -16.68110961 [kcal/mol]     -69.79376259 [kJ/mol]
  Total sSAPT0                    -99.56913470 [mEh]     -62.48057532 [kcal/mol]    -261.41872713 [kJ/mol]
  --------------------------------------------------------------------------------------------------------

*** Psi4 exiting successfully. Buy a developer a beer!
