 Gaussian 16, Revision A.03,
 Gaussian 16:  ES64L-G16RevA.03 25-Dec-2016

 ---------------
 #p M052X/6-31G*
 ---------------

 -------------------
 Title Card Required
 -------------------
 Symbolic Z-matrix:
 Charge =  0 Multiplicity = 1

                         Standard orientation:
 ---------------------------------------------------------------------
 Center     Atomic      Atomic             Coordinates (Angstroms)
 Number     Number       Type             X           Y           Z
 ---------------------------------------------------------------------
      1          6           0        0.639669    0.963489   -0.000077
      2          6           0        1.128979   -0.314075   -0.000054
      3          6           0       -1.004616   -0.511653    0.000065
      4          7           0       -0.731452    0.825224    0.000046
      5          1           0       -1.405269    1.572951    0.000142
      6          1           0        1.120970    1.925921   -0.000146
      7          1           0        2.159378   -0.629822   -0.000110
      8          1           0       -2.011556   -0.897834    0.000131
      9          7           0        0.096064   -1.224907    0.000009
 ---------------------------------------------------------------------

 SCF Done:  E(RM052X) =  -226.187907283     A.U. after   14 cycles

 The electronic state is 1-A.
 Alpha  occ. eigenvalues --  -14.85865 -14.77132 -10.62613 -10.60184 -10.58059
 Alpha  occ. eigenvalues --   -1.13330  -0.97564  -0.84647  -0.70378  -0.67521
 Alpha  occ. eigenvalues --   -0.64662  -0.51171  -0.50796  -0.50761  -0.47520
 Alpha  occ. eigenvalues --   -0.33947  -0.33363  -0.28166
 Alpha virt. eigenvalues --    0.08200   0.12738   0.13300   0.19395   0.21175
 Alpha virt. eigenvalues --    0.23211   0.27567   0.29470   0.36253   0.40141
 Alpha virt. eigenvalues --    0.52700   0.57200   0.60467   0.63170   0.65202

 Mulliken charges:
               1
     1  C   -0.012728
     2  C   -0.070168
     3  C    0.185801
     4  N   -0.594479
     5  H    0.365963
     6  H    0.192706
     7  H    0.175724
     8  H    0.192883
     9  N   -0.435703
 Sum of Mulliken charges =  -0.00000

 Dipole moment (field-independent basis, Debye):
    X=             -1.5591    Y=              3.5080    Z=              0.0001  Tot=              3.8388
 Quadrupole moment (field-independent basis, Debye-Ang):
   XX=            -22.1700   YY=            -28.6331   ZZ=            -31.4627
   XY=             -0.8521   XZ=             -0.0008   YZ=              0.0001

 Normal termination of Gaussian 16 at Wed Oct 11 11:51:09 2023.
