 Gaussian 16, Revision A.03,
 Gaussian 16:  ES64L-G16RevA.03 25-Dec-2016

 ----------------------------------------
 #p opt freq b3lyp/6-311+g(2d,p) em=gd3bj
 ----------------------------------------

 -------------------
 Title Card Required
 -------------------
 Symbolic Z-matrix:
 Charge =  0 Multiplicity = 1

 SCF Done:  E(RB3LYP) =  -226.299061184     A.U. after   12 cycles
 SCF Done:  E(RB3LYP) =  -226.299065512     A.U. after    8 cycles
 SCF Done:  E(RB3LYP) =  -226.299066637     A.U. after    7 cycles
 Optimization completed.
    -- Stationary point found.
 Normal termination of Gaussian 16 at Wed Oct 11 11:49:42 2023.

 ----------------------------------------------------------------------
 #P Geom=AllCheck Guess=TCheck SCRF=Check GenChk RB3LYP/6-311+G(2d,p) F
 req
 ----------------------------------------------------------------------

 Structure from the checkpoint file:  "/data0/home/software/g16/scratch/Gau-2483292.chk"
 -------------------
 Title Card Required
 -------------------
 Charge =  0 Multiplicity = 1

                         Standard orientation:
 ---------------------------------------------------------------------
 Center     Atomic      Atomic             Coordinates (Angstroms)
 Number     Number       Type             X           Y           Z
 ---------------------------------------------------------------------
      1          6           0        0.639669    0.963489   -0.000077
      2          6           0        1.128979   -0.314075   -0.000054
      3          6           0       -1.004616   -0.511653    0.000065
      4          7           0       -0.731452    0.825224    0.000046
      5          1           0       -1.405269    1.572951    0.000142
      6          1           0        1.120970    1.925921   -0.000146
      7          1           0        2.159378   -0.629822   -0.000110
      8          1           0       -2.011556   -0.897834    0.000131
      9          7           0        0.096064   -1.224907    0.000009
 ---------------------------------------------------------------------

 SCF Done:  E(RB3LYP) =  -226.299066637     A.U. after    1 cycles

 The electronic state is 1-A.
 Alpha  occ. eigenvalues --  -14.37689 -14.29652 -10.22812 -10.20396 -10.18585
 Alpha  occ. eigenvalues --   -1.02341  -0.87820  -0.75178  -0.62409  -0.59867
 Alpha  occ. eigenvalues --   -0.57070  -0.45034  -0.44647  -0.43927  -0.41639
 Alpha  occ. eigenvalues --   -0.29175  -0.27848  -0.24045
 Alpha virt. eigenvalues --   -0.00846   0.00794   0.02149   0.03256   0.04070
 Alpha virt. eigenvalues --    0.04847   0.05742   0.05963   0.07377   0.09260
 Alpha virt. eigenvalues --    0.10621   0.11005   0.11590   0.14137   0.15566

 Mulliken charges:
               1
     1  C   -0.097176
     2  C    0.023980
     3  C    0.119177
     4  N   -0.230830
     5  H    0.238192
     6  H    0.104991
     7  H    0.090276
     8  H    0.110019
     9  N   -0.358629
 Sum of Mulliken charges =  -0.00000

 Dipole moment (field-independent basis, Debye):
    X=             -1.5048    Y=              3.4640    Z=              0.0001  Tot=              3.7767
 Quadrupole moment (field-independent basis, Debye-Ang):
   XX=            -23.1454   YY=            -29.8528   ZZ=            -32.3667
   XY=             -0.8937   XZ=             -0.0007   YZ=              0.0001

  Exact polarizability:  55.089   1.078  54.516  -0.001  -0.000  32.631
 Approx polarizability:  85.171  -0.518  88.456  -0.002  -0.001  47.355

                      1                      2                      3
                      A                      A                      A
 Frequencies --    490.6321               643.2475               681.6164
 Red. masses --      1.4425                 2.2592                 2.8778
 Frc consts  --      0.2046                 0.5507                 0.7877
 IR Inten    --     94.9534                 5.8988                 7.8367

                      4                      5                      6
                      A                      A                      A
 Frequencies --    720.7915               813.1586               862.0152
 Red. masses --      1.2405                 1.4121                 1.3617
 Frc consts  --      0.3797                 0.5502                 0.5961
 IR Inten    --     43.3976                38.0626                 4.0195

                      7                      8                      9
                      A                      A                      A
 Frequencies --    916.5540               952.0546              1071.1460
 Red. masses --      5.4066                 4.2760                 1.6628
 Frc consts  --      2.6760                 2.2835                 1.1240
 IR Inten    --      7.8070                 2.0538                41.2777

                     10                     11                     12
                      A                      A                      A
 Frequencies --   1091.7623              1141.6141              1161.7978
 Red. masses --      1.5862                 1.4970                 4.9381
 Frc consts  --      1.1140                 1.1495                 3.9271
 IR Inten    --     16.3115                 2.9858                 5.5947

                     13                     14                     15
                      A                      A                      A
 Frequencies --   1284.6649              1359.8153              1426.9875
 Red. masses --      1.4256                 3.2892                 2.7625
 Frc consts  --      1.3863                 3.5835                 3.3143
 IR Inten    --      0.3654                 6.0708                16.4418

                     16                     17                     18
                      A                      A                      A
 Frequencies --   1496.1166              1554.2432              3241.5845
 Red. masses --      2.9473                 3.0723                 1.0934
 Frc consts  --      3.8869                 4.3727                 6.7693
 IR Inten    --     18.7697                11.3396                 3.9788

                     19                     20                     21
                      A                      A                      A
 Frequencies --   3243.9895              3271.7365              3658.2176
 Red. masses --      1.0963                 1.1039                 1.0812
 Frc consts  --      6.7973                 6.9618                 8.5254
 IR Inten    --      0.6599                 0.9111                56.5984

 - Thermochemistry -
 -------------------
 Temperature   298.150 Kelvin.  Pressure   1.00000 Atm.
 Atom     1 has atomic number  6 and mass  12.00000

 Molecular mass:    68.03745 amu.
 Principal axes and moments of inertia in atomic units:
                           1         2         3
     Eigenvalues --   185.23738 191.04562 376.28301
           X           -0.24734   0.96893   0.00007
           Y            0.96893   0.24734   0.00002
           Z            0.00000  -0.00007   1.00000
 This molecule is an asymmetric top.
 Rotational symmetry number  1.
 Rotational temperatures (Kelvin)      0.46758     0.45337     0.23018
 Rotational constants (GHZ):           9.74286     9.44665     4.79623
 Zero-point vibrational energy     185922.1 (Joules/Mol)
                                   44.43645 (Kcal/Mol)
 Warning -- explicit consideration of   1 degrees of freedom as
           vibrations may cause significant error
 Vibrational temperatures:    705.91   925.49   980.69  1037.06  1169.95
          (Kelvin)           1240.25  1318.72  1369.79  1541.14  1570.80
                             1642.53  1671.57  1848.35  1956.47  2053.12
                             2152.58  2236.21  4663.92  4667.38  4707.30
                             5263.36

 Zero-point correction=                           0.070814 (Hartree/Particle)
 Thermal correction to Energy=                    0.074603
 Thermal correction to Enthalpy=                  0.075547
 Thermal correction to Gibbs Free Energy=         0.044534
 Sum of electronic and zero-point Energies=           -226.228253
 Sum of electronic and thermal Energies=              -226.224464
 Sum of electronic and thermal Enthalpies=            -226.223520
 Sum of electronic and thermal Free Energies=         -226.254533

                     E (Thermal)             CV                S
                      KCal/Mol        Cal/Mol-Kelvin    Cal/Mol-Kelvin
 Total                   46.814             13.504             65.273
 Electronic               0.000              0.000              0.000
 Translational            0.889              2.981             38.570
 Rotational               0.889              2.981             24.102
 Vibrational             45.036              7.543              2.601
 Vibration     1          0.846              1.271              0.682

 Optimization completed.
    -- Stationary point found.
 Normal termination of Gaussian 16 at Wed Oct 11 11:50:08 2023.
