 Gaussian 16, Revision A.03,
 Gaussian 16:  ES64L-G16RevA.03 25-Dec-2016

 ------------------------------------
 #p 6-311+g(2d,p) nosymm em=gd3 m062x
 ------------------------------------

 -------------------
 Title Card Required
 -------------------
 Symbolic Z-matrix:
 Charge =  0 Multiplicity = 1

                          Input orientation:
 ---------------------------------------------------------------------
 Center     Atomic      Atomic             Coordinates (Angstroms)
 Number     Number       Type             X           Y           Z
 ---------------------------------------------------------------------
      1          6           0        3.521840   17.106360   17.580874
      2          6           0        2.683844   17.523885   16.534666
      3          6           0        2.066675   18.773720   16.611332
      4          6           0        2.348547   19.607365   17.704174
      5          6           0        3.212290   19.177583   18.698596
      6          1           0        1.387897   19.112404   15.819021
      7          1           0        4.010926   16.119790   17.557814
      8          1           0        1.936805   20.620989   17.734693
      9          1           0        3.497001   19.822098   19.536479
     10          6           0        2.551215   16.655532   15.340641
     11          1           0        2.185738   15.649109   15.572347
     12          1           0        1.899547   17.089884   14.567050
     13          1           0        3.546157   16.544599   14.849521
     14          7           0        3.755073   17.920930   18.643230
     15          6           0        4.644995   17.470984   19.737236
     16          1           0        4.195088   17.770383   20.711739
     17          1           0        4.692248   16.356775   19.741372
     18          6           0        6.063909   18.050977   19.605773
     19          1           0        6.028739   19.150528   19.429975
     20          1           0        6.589535   17.923472   20.573651
     21          6           0        6.869513   17.393445   18.488872
     22          1           0        7.954915   17.541108   18.649459
     23          1           0        6.707913   16.307194   18.428869
     24          6           0        6.486903   18.068100   17.159379
     25          8           0        6.978234   19.179753   16.936776
     26          8           0        5.662155   17.451675   16.444699
 ---------------------------------------------------------------------

 SCF Done:  E(RM062X) =  -593.981488267     A.U. after   16 cycles

 Alpha  occ. eigenvalues --  -19.51199 -19.50376 -14.88430 -10.64917 -10.64648
 Alpha  occ. eigenvalues --  -10.62288 -10.60661 -10.60281 -10.60073 -10.57032
 Alpha  occ. eigenvalues --  -10.55734 -10.55251 -10.50697  -1.15927  -1.10181
 Alpha  occ. eigenvalues --   -1.00507  -0.98178  -0.93162  -0.90037  -0.83684
 Alpha  occ. eigenvalues --   -0.81504  -0.76543  -0.74298  -0.69320  -0.64808
 Alpha  occ. eigenvalues --   -0.62798  -0.59966  -0.57445  -0.55947  -0.55425
 Alpha  occ. eigenvalues --   -0.53840  -0.52615  -0.50092  -0.49275  -0.48545
 Alpha  occ. eigenvalues --   -0.47911  -0.46705  -0.45518  -0.44653  -0.43826
 Alpha  occ. eigenvalues --   -0.42451  -0.40178  -0.39658  -0.37194  -0.34937
 Alpha  occ. eigenvalues --   -0.26240  -0.25957  -0.25245
 Alpha virt. eigenvalues --   -0.06515  -0.03060  -0.01118   0.00287   0.00542
 Alpha virt. eigenvalues --    0.02113   0.02553   0.02659   0.04419   0.04545
 Alpha virt. eigenvalues --    0.05357   0.05482   0.05875   0.07394   0.07495

 Mulliken charges:
               1
     1  C   -0.305641
     2  C    0.637427
     3  C   -0.423856
     4  C   -0.025559
     5  C   -0.092326
     6  H    0.154078
     7  H    0.194919
     8  H    0.151324
     9  H    0.169138
    10  C   -0.826632
    11  H    0.182233
    12  H    0.159155
    13  H    0.240951
    14  N    0.463634
    15  C   -0.413269
    16  H    0.179227
    17  H    0.189649
    18  C   -0.261101
    19  H    0.198898
    20  H    0.156957
    21  C   -0.265839
    22  H    0.166919
    23  H    0.152952
    24  C    0.309561
    25  O   -0.525830
    26  O   -0.566967
 Sum of Mulliken charges =  -0.00000

 Dipole moment (field-independent basis, Debye):
    X=             -9.2913    Y=             -1.8011    Z=              5.1979  Tot=             10.7977
 Quadrupole moment (field-independent basis, Debye-Ang):
   XX=           -167.5167   YY=           -138.5522   ZZ=            111.8742
   XY=           -185.8383   XZ=           -127.1243   YZ=             65.0363

 Normal termination of Gaussian 16 at Mon Jul 10 19:18:46 2023.
