 Gaussian 16, Revision A.03,
 Gaussian 16:  ES64L-G16RevA.03 25-Dec-2016

 ------------------------------------
 #p 6-311+g(2d,p) nosymm em=gd3 m062x
 ------------------------------------

 -------------------
 Title Card Required
 -------------------
 Symbolic Z-matrix:
 Charge =  0 Multiplicity = 1

                          Input orientation:
 ---------------------------------------------------------------------
 Center     Atomic      Atomic             Coordinates (Angstroms)
 Number     Number       Type             X           Y           Z
 ---------------------------------------------------------------------
      1         15           0        4.533700   20.240861   14.679326
      2          8           0        3.424046   20.490743   15.609355
      3          8           0        4.213700   20.933763   13.274199
      4          1           0        5.020371   20.756689   12.655999
      5          8           0        5.944845   20.833443   15.073285
      6          1           0        6.386575   20.186875   15.811446
      7          8           0        4.752900   18.719195   14.286364
      8          1           0        5.176165   18.199819   15.131815
 ---------------------------------------------------------------------

 SCF Done:  E(RM062X) =  -644.132167298     A.U. after   12 cycles

 Alpha  occ. eigenvalues --  -78.16825 -19.69814 -19.69459 -19.67814 -19.57950
 Alpha  occ. eigenvalues --   -6.97614  -5.09529  -5.09526  -5.09262  -1.24585
 Alpha  occ. eigenvalues --   -1.17397  -1.16526  -1.08225  -0.72601  -0.65733
 Alpha  occ. eigenvalues --   -0.63513  -0.59090  -0.53504  -0.51879  -0.49722
 Alpha  occ. eigenvalues --   -0.46191  -0.45435  -0.44999  -0.37771  -0.36826
 Alpha virt. eigenvalues --   -0.04328   0.00943   0.02749   0.04627   0.07923
 Alpha virt. eigenvalues --    0.08597   0.10741   0.12342   0.15876   0.17284
 Alpha virt. eigenvalues --    0.17368   0.18478   0.19450   0.19988   0.21480

 Mulliken charges:
               1
     1  P    1.283175
     2  O   -0.609521
     3  O   -0.489532
     4  H    0.300875
     5  O   -0.546209
     6  H    0.309926
     7  O   -0.559281
     8  H    0.310566
 Sum of Mulliken charges =  -0.00000

 Dipole moment (field-independent basis, Debye):
    X=              5.1904    Y=             -2.7401    Z=             -0.2938  Tot=              5.8766
 Quadrupole moment (field-independent basis, Debye-Ang):
   XX=             10.9873   YY=           -145.3722   ZZ=            -40.8863
   XY=             90.3671   XZ=             78.6540   YZ=            -50.7793

 Normal termination of Gaussian 16 at Mon Jul 10 19:16:57 2023.
