 Gaussian 16, Revision A.03,
 Gaussian 16:  ES64L-G16RevA.03 25-Dec-2016

 ---------------
 #p M052X/6-31G*
 ---------------

 -------------------
 Title Card Required
 -------------------
 Symbolic Z-matrix:
 Charge =  0 Multiplicity = 1

                         Standard orientation:
 ---------------------------------------------------------------------
 Center     Atomic      Atomic             Coordinates (Angstroms)
 Number     Number       Type             X           Y           Z
 ---------------------------------------------------------------------
      1          6           0       -2.883951   -0.895486   -1.005034
      2          1           0       -3.420472   -0.188150   -1.634016
      3          1           0       -3.587521   -1.535300   -0.476733
      4          1           0       -2.211202   -1.499268   -1.608738
      5          6           0       -1.101834    0.749488   -0.788613
      6          1           0       -1.745111    1.365806   -1.417056
      7          1           0       -0.522499    0.060938   -1.400040
      8          6           0       -1.335063   -1.147679    0.853517
      9          1           0       -0.716175   -0.634451    1.582254
     10          1           0       -2.086126   -1.771830    1.334310
     11          1           0       -0.661833   -1.713728    0.214142
     12          6           0       -2.964003    0.689952    0.847691
     13          1           0       -3.667109    0.037382    1.361005
     14          1           0       -2.362754    1.225976    1.575632
     15          1           0       -3.499881    1.395463    0.215345
     16          6           0       -0.155360    1.603530    0.063676
     17          1           0       -0.215764    1.331843    1.118164
     18          1           0       -0.447630    2.653799   -0.009623
     19          6           0        1.306190    1.434769   -0.351652
     20          1           0        1.941309    2.118357    0.209766
     21          1           0        1.461850    1.606697   -1.417598
     22          7           0       -2.065347   -0.142469   -0.004816
     23         16           0        1.921534   -0.246103    0.021979
     24          8           0        1.550361   -0.434593    1.439079
     25          8           0        1.134022   -1.125395   -0.885302
     26          8           0        3.347857   -0.205768   -0.264061
 ---------------------------------------------------------------------

 SCF Done:  E(RM052X) =  -916.086427833     A.U. after   14 cycles

 The electronic state is 1-A.
 Alpha  occ. eigenvalues --  -90.18297 -19.59893 -19.59451 -19.59088 -14.97020
 Alpha  occ. eigenvalues --  -10.67584 -10.67409 -10.65419 -10.63478 -10.60213
 Alpha  occ. eigenvalues --  -10.57355  -8.38920  -6.31541  -6.31526  -6.31493
 Alpha  occ. eigenvalues --   -1.17933  -1.17505  -1.03176  -1.02663  -0.93203
 Alpha  occ. eigenvalues --   -0.90438  -0.88190  -0.84568  -0.76684  -0.71771
 Alpha  occ. eigenvalues --   -0.64994  -0.64223  -0.62983  -0.60704  -0.57913
 Alpha  occ. eigenvalues --   -0.56144  -0.53759  -0.53315  -0.52269  -0.51037
 Alpha  occ. eigenvalues --   -0.50766  -0.50407  -0.49693  -0.47748  -0.46270
 Alpha  occ. eigenvalues --   -0.45960  -0.43580  -0.42743  -0.35308  -0.34910
 Alpha  occ. eigenvalues --   -0.31282  -0.31133  -0.29526  -0.26949
 Alpha virt. eigenvalues --    0.05537   0.10384   0.11203   0.12017   0.13502
 Alpha virt. eigenvalues --    0.13562   0.14902   0.15916   0.16957   0.17678
 Alpha virt. eigenvalues --    0.18301   0.19206   0.19984   0.21596   0.21920

 Mulliken charges:
               1
     1  C   -0.368793
     2  H    0.212121
     3  H    0.214411
     4  H    0.254641
     5  C   -0.209210
     6  H    0.186847
     7  H    0.285152
     8  C   -0.408225
     9  H    0.273340
    10  H    0.186036
    11  H    0.293354
    12  C   -0.363957
    13  H    0.215833
    14  H    0.240868
    15  H    0.211872
    16  C   -0.376981
    17  H    0.208806
    18  H    0.184290
    19  C   -0.543563
    20  H    0.219362
    21  H    0.201295
    22  N   -0.432314
    23  S    1.233941
    24  O   -0.658707
    25  O   -0.682052
    26  O   -0.578369
 Sum of Mulliken charges =  -0.00000

 Dipole moment (field-independent basis, Debye):
    X=            -15.3778    Y=              3.3735    Z=             -0.7453  Tot=             15.7611
 Quadrupole moment (field-independent basis, Debye-Ang):
   XX=            -77.0970   YY=            -71.0156   ZZ=            -76.2499
   XY=              7.6567   XZ=             -0.6962   YZ=             -0.8861

 Normal termination of Gaussian 16 at Wed Oct 11 15:06:42 2023.
