 Gaussian 16, Revision A.03,
 Gaussian 16:  ES64L-G16RevA.03 25-Dec-2016

 ----------------------------------------
 #p opt freq b3lyp/6-311+g(2d,p) em=gd3bj
 ----------------------------------------

 -------------------
 Title Card Required
 -------------------
 Symbolic Z-matrix:
 Charge =  0 Multiplicity = 1

 SCF Done:  E(RB3LYP) =  -916.463067126     A.U. after   14 cycles
 SCF Done:  E(RB3LYP) =  -916.457743744     A.U. after   11 cycles
 SCF Done:  E(RB3LYP) =  -916.462422250     A.U. after   11 cycles
 SCF Done:  E(RB3LYP) =  -916.463113258     A.U. after    7 cycles
 SCF Done:  E(RB3LYP) =  -916.463064746     A.U. after   10 cycles
 SCF Done:  E(RB3LYP) =  -916.462674864     A.U. after   11 cycles
 SCF Done:  E(RB3LYP) =  -916.463172556     A.U. after   10 cycles
 SCF Done:  E(RB3LYP) =  -916.463179289     A.U. after    9 cycles
 SCF Done:  E(RB3LYP) =  -916.463181342     A.U. after    8 cycles
 SCF Done:  E(RB3LYP) =  -916.463182564     A.U. after    8 cycles
 Optimization completed.
    -- Stationary point found.
 Normal termination of Gaussian 16 at Wed Oct 11 12:08:41 2023.

 ----------------------------------------------------------------------
 #P Geom=AllCheck Guess=TCheck SCRF=Check GenChk RB3LYP/6-311+G(2d,p) F
 req
 ----------------------------------------------------------------------

 Structure from the checkpoint file:  "/data0/home/software/g16/scratch/Gau-2489423.chk"
 -------------------
 Title Card Required
 -------------------
 Charge =  0 Multiplicity = 1

                         Standard orientation:
 ---------------------------------------------------------------------
 Center     Atomic      Atomic             Coordinates (Angstroms)
 Number     Number       Type             X           Y           Z
 ---------------------------------------------------------------------
      1          6           0       -2.883951   -0.895486   -1.005034
      2          1           0       -3.420472   -0.188150   -1.634016
      3          1           0       -3.587521   -1.535300   -0.476733
      4          1           0       -2.211202   -1.499268   -1.608738
      5          6           0       -1.101834    0.749488   -0.788613
      6          1           0       -1.745111    1.365806   -1.417056
      7          1           0       -0.522499    0.060938   -1.400040
      8          6           0       -1.335063   -1.147679    0.853517
      9          1           0       -0.716175   -0.634451    1.582254
     10          1           0       -2.086126   -1.771830    1.334310
     11          1           0       -0.661833   -1.713728    0.214142
     12          6           0       -2.964003    0.689952    0.847691
     13          1           0       -3.667109    0.037382    1.361005
     14          1           0       -2.362754    1.225976    1.575632
     15          1           0       -3.499881    1.395463    0.215345
     16          6           0       -0.155360    1.603530    0.063676
     17          1           0       -0.215764    1.331843    1.118164
     18          1           0       -0.447630    2.653799   -0.009623
     19          6           0        1.306190    1.434769   -0.351652
     20          1           0        1.941309    2.118357    0.209766
     21          1           0        1.461850    1.606697   -1.417598
     22          7           0       -2.065347   -0.142469   -0.004816
     23         16           0        1.921534   -0.246103    0.021979
     24          8           0        1.550361   -0.434593    1.439079
     25          8           0        1.134022   -1.125395   -0.885302
     26          8           0        3.347857   -0.205768   -0.264061
 ---------------------------------------------------------------------

 SCF Done:  E(RB3LYP) =  -916.463182564     A.U. after    1 cycles

 The electronic state is 1-A.
 Alpha  occ. eigenvalues --  -88.98890 -19.05090 -19.04787 -19.04468 -14.48200
 Alpha  occ. eigenvalues --  -10.27189 -10.26999 -10.24996 -10.23313 -10.20071
 Alpha  occ. eigenvalues --  -10.17567  -8.04456  -6.00751  -6.00736  -6.00704
 Alpha  occ. eigenvalues --   -1.06811  -1.05953  -0.93490  -0.93019  -0.82813
 Alpha  occ. eigenvalues --   -0.80259  -0.78180  -0.74906  -0.67802  -0.63197
 Alpha  occ. eigenvalues --   -0.57242  -0.56608  -0.55457  -0.53111  -0.50524
 Alpha  occ. eigenvalues --   -0.49050  -0.46863  -0.46527  -0.45656  -0.44409
 Alpha  occ. eigenvalues --   -0.44101  -0.43767  -0.43173  -0.41072  -0.39897
 Alpha  occ. eigenvalues --   -0.39572  -0.37643  -0.36776  -0.29476  -0.29078
 Alpha  occ. eigenvalues --   -0.25651  -0.25567  -0.24686  -0.21403
 Alpha virt. eigenvalues --   -0.04109  -0.01585  -0.01280  -0.00574   0.00398
 Alpha virt. eigenvalues --    0.01672   0.02245   0.02710   0.02848   0.03873
 Alpha virt. eigenvalues --    0.05113   0.06105   0.06440   0.07264   0.07528

 Mulliken charges:
               1
     1  C   -0.217720
     2  H    0.163682
     3  H    0.165203
     4  H    0.198796
     5  C   -0.199140
     6  H    0.135206
     7  H    0.223012
     8  C   -0.297441
     9  H    0.216368
    10  H    0.150868
    11  H    0.243400
    12  C   -0.199944
    13  H    0.165648
    14  H    0.179287
    15  H    0.167529
    16  C   -0.072193
    17  H    0.143663
    18  H    0.113954
    19  C   -0.575893
    20  H    0.160514
    21  H    0.149354
    22  N   -0.308074
    23  S    1.303273
    24  O   -0.726929
    25  O   -0.762678
    26  O   -0.519747
 Sum of Mulliken charges =  -0.00000

 Dipole moment (field-independent basis, Debye):
    X=            -15.1784    Y=              3.3213    Z=             -0.7029  Tot=             15.5534
 Quadrupole moment (field-independent basis, Debye-Ang):
   XX=            -79.0092   YY=            -72.6335   ZZ=            -77.9428
   XY=              7.6184   XZ=             -0.7140   YZ=             -1.0102

  Exact polarizability: 126.912   0.832 104.364  -0.875  -1.516  96.883
 Approx polarizability: 164.213   0.431 153.024  -1.697  -0.869 153.681

                      1                      2                      3
                      A                      A                      A
 Frequencies --     46.0445               113.9493               120.9750
 Red. masses --      2.8559                 7.8491                 4.3399
 Frc consts  --      0.0036                 0.0600                 0.0374
 IR Inten    --      1.6891                 4.1148                17.9823

                      4                      5                      6
                      A                      A                      A
 Frequencies --    166.0208               191.3599               214.9999
 Red. masses --      1.8390                 2.6923                 1.8367
 Frc consts  --      0.0299                 0.0581                 0.0500
 IR Inten    --      1.3372                 6.0551                 5.6905

                      7                      8                      9
                      A                      A                      A
 Frequencies --    238.8938               269.7852               290.3500
 Red. masses --      4.8446                 1.1132                 1.4011
 Frc consts  --      0.1629                 0.0477                 0.0696
 IR Inten    --      3.5627                 0.2324                 1.9786

                     10                     11                     12
                      A                      A                      A
 Frequencies --    299.4067               327.7828               385.6017
 Red. masses --      1.3788                 3.1009                 2.3625
 Frc consts  --      0.0728                 0.1963                 0.2070
 IR Inten    --      0.3002                 0.7654                 3.6228

                     13                     14                     15
                      A                      A                      A
 Frequencies --    389.0933               403.3827               447.8525
 Red. masses --      2.4201                 3.1164                 2.2783
 Frc consts  --      0.2159                 0.2988                 0.2692
 IR Inten    --      5.6005                 2.5856                 2.3485

                     16                     17                     18
                      A                      A                      A
 Frequencies --    461.8539               494.9002               501.7474
 Red. masses --      2.7751                 5.3281                 7.7111
 Frc consts  --      0.3488                 0.7689                 1.1438
 IR Inten    --      1.2526                 8.3373                15.9891

                     19                     20                     21
                      A                      A                      A
 Frequencies --    510.9882               572.5960               685.0891
 Red. masses --      3.1865                 4.1904                 5.2196
 Frc consts  --      0.4902                 0.8095                 1.4434
 IR Inten    --     12.6841                18.6385                99.7928

                     22                     23                     24
                      A                      A                      A
 Frequencies --    734.1278               818.4905               864.0507
 Red. masses --      3.5320                 1.6676                 2.2963
 Frc consts  --      1.1215                 0.6582                 1.0101
 IR Inten    --      5.0588                 7.9066                10.3724

                     25                     26                     27
                      A                      A                      A
 Frequencies --    909.7522               943.2561               977.2114
 Red. masses --      2.8530                 2.5188                 2.7788
 Frc consts  --      1.3913                 1.3204                 1.5635
 IR Inten    --     10.3286                26.0789                10.1904

                     28                     29                     30
                      A                      A                      A
 Frequencies --    990.8791              1012.2377              1031.6794
 Red. masses --      9.0480                 1.9114                 1.5028
 Frc consts  --      5.2341                 1.1539                 0.9424
 IR Inten    --    109.4742                12.6272                 1.4160

                     31                     32                     33
                      A                      A                      A
 Frequencies --   1066.0032              1075.5650              1123.6248
 Red. masses --      2.9519                 1.2242                 1.9527
 Frc consts  --      1.9764                 0.8344                 1.4526
 IR Inten    --      5.4365                 5.0913               116.3920

                     34                     35                     36
                      A                      A                      A
 Frequencies --   1139.7069              1152.8573              1185.1177
 Red. masses --      1.3203                 2.1825                 1.3707
 Frc consts  --      1.0104                 1.7091                 1.1343
 IR Inten    --     22.6459                95.0945                37.4346

                     37                     38                     39
                      A                      A                      A
 Frequencies --   1217.5801              1242.8281              1264.4501
 Red. masses --      1.7338                 3.3553                 1.8843
 Frc consts  --      1.5144                 3.0535                 1.7750
 IR Inten    --     89.4530               236.1677                30.0495

                     40                     41                     42
                      A                      A                      A
 Frequencies --   1268.2036              1300.4666              1326.8735
 Red. masses --      1.8718                 1.8878                 1.2427
 Frc consts  --      1.7737                 1.8811                 1.2891
 IR Inten    --     54.8116                 1.7124                 2.5094

                     43                     44                     45
                      A                      A                      A
 Frequencies --   1356.2827              1375.4852              1437.1263
 Red. masses --      1.3339                 1.2607                 1.1871
 Frc consts  --      1.4457                 1.4053                 1.4446
 IR Inten    --      0.7554                 3.2066                 2.0551

                     46                     47                     48
                      A                      A                      A
 Frequencies --   1450.8928              1455.1629              1461.8852
 Red. masses --      1.1573                 1.1272                 1.0853
 Frc consts  --      1.4353                 1.4062                 1.3665
 IR Inten    --      1.5608                 3.4366                 1.9763

                     49                     50                     51
                      A                      A                      A
 Frequencies --   1466.8551              1471.8323              1482.0888
 Red. masses --      1.0964                 1.0648                 1.0520
 Frc consts  --      1.3899                 1.3590                 1.3616
 IR Inten    --      6.3426                 4.6413                24.5152

                     52                     53                     54
                      A                      A                      A
 Frequencies --   1491.2345              1496.2301              1510.2689
 Red. masses --      1.0746                 1.0499                 1.1224
 Frc consts  --      1.4079                 1.3849                 1.5084
 IR Inten    --      3.7203                 0.3915                 5.2928

                     55                     56                     57
                      A                      A                      A
 Frequencies --   1513.2053              1518.9988              1526.9112
 Red. masses --      1.0771                 1.0798                 1.0723
 Frc consts  --      1.4532                 1.4680                 1.4730
 IR Inten    --     56.1580                29.8695                46.9184

                     58                     59                     60
                      A                      A                      A
 Frequencies --   3038.5101              3056.2614              3061.0734
 Red. masses --      1.0668                 1.0559                 1.0362
 Frc consts  --      5.8030                 5.8109                 5.7207
 IR Inten    --     26.1222                25.1542                47.4091

                     61                     62                     63
                      A                      A                      A
 Frequencies --   3064.0982              3066.0159              3072.9000
 Red. masses --      1.0601                 1.0319                 1.0348
 Frc consts  --      5.8639                 5.7151                 5.7571
 IR Inten    --      4.3195                 6.6234                51.6558

                     64                     65                     66
                      A                      A                      A
 Frequencies --   3087.5092              3123.3949              3124.5447
 Red. masses --      1.0920                 1.1077                 1.1060
 Frc consts  --      6.1331                 6.3671                 6.3617
 IR Inten    --     16.2943                 9.0147                 5.7138

                     67                     68                     69
                      A                      A                      A
 Frequencies --   3147.4498              3153.0402              3156.0764
 Red. masses --      1.1073                 1.1067                 1.1091
 Frc consts  --      6.4631                 6.4825                 6.5093
 IR Inten    --      0.6641                11.1840                 9.6064

                     70                     71                     72
                      A                      A                      A
 Frequencies --   3164.2649              3170.5151              3176.1494
 Red. masses --      1.1074                 1.1055                 1.1048
 Frc consts  --      6.5327                 6.5475                 6.5668
 IR Inten    --      0.3462                 3.2492                 1.3436

 - Thermochemistry -
 -------------------
 Temperature   298.150 Kelvin.  Pressure   1.00000 Atm.
 Atom     1 has atomic number  6 and mass  12.00000

 Molecular mass:   181.07727 amu.
 Principal axes and moments of inertia in atomic units:
                           1         2         3
     Eigenvalues --   924.428083066.155123227.06979
           X            0.99989   0.01462  -0.00216
           Y           -0.01464   0.99985  -0.00915
           Z            0.00203   0.00918   0.99996
 This molecule is an asymmetric top.
 Rotational symmetry number  1.
 Warning -- assumption of classical behavior for rotation
           may cause significant error
 Rotational temperatures (Kelvin)      0.09369     0.02825     0.02684
 Rotational constants (GHZ):           1.95228     0.58860     0.55925
 Zero-point vibrational energy     588885.1 (Joules/Mol)
                                  140.74691 (Kcal/Mol)
 Warning -- explicit consideration of  20 degrees of freedom as
           vibrations may cause significant error
 Vibrational temperatures:     66.25   163.95   174.06   238.87   275.32
          (Kelvin)            309.34   343.71   388.16   417.75   430.78
                              471.61   554.79   559.82   580.38   644.36
                              664.50   712.05   721.90   735.20   823.84
                              985.69  1056.25  1177.63  1243.18  1308.93
                             1357.14  1405.99  1425.65  1456.38  1484.36
                             1533.74  1547.50  1616.65  1639.78  1658.70
                             1705.12  1751.83  1788.15  1819.26  1824.66
                             1871.08  1909.08  1951.39  1979.02  2067.70
                             2087.51  2093.65  2103.33  2110.48  2117.64
                             2132.40  2145.55  2152.74  2172.94  2177.16
                             2185.50  2196.88  4371.74  4397.28  4404.20
                             4408.55  4411.31  4421.22  4442.24  4493.87
                             4495.52  4528.48  4536.52  4540.89  4552.67
                             4561.66  4569.77

 Zero-point correction=                           0.224294 (Hartree/Particle)
 Thermal correction to Energy=                    0.236513
 Thermal correction to Enthalpy=                  0.237457
 Thermal correction to Gibbs Free Energy=         0.186661
 Sum of electronic and zero-point Energies=           -916.238888
 Sum of electronic and thermal Energies=              -916.226670
 Sum of electronic and thermal Enthalpies=            -916.225725
 Sum of electronic and thermal Free Energies=         -916.276522

                     E (Thermal)             CV                S
                      KCal/Mol        Cal/Mol-Kelvin    Cal/Mol-Kelvin
 Total                  148.414             46.901            106.911
 Electronic               0.000              0.000              0.000
 Translational            0.889              2.981             41.488
 Rotational               0.889              2.981             30.593
 Vibrational            146.637             40.939             34.830
 Vibration     1          0.595              1.979              4.980
 Vibration     2          0.607              1.938              3.200
 Vibration     3          0.609              1.932              3.085
 Vibration     4          0.624              1.884              2.480
 Vibration     5          0.634              1.852              2.215
 Vibration     6          0.645              1.818              2.001
 Vibration     7          0.657              1.781              1.811
 Vibration     8          0.674              1.729              1.598
 Vibration     9          0.686              1.692              1.472
 Vibration    10          0.692              1.675              1.420
 Vibration    11          0.711              1.620              1.271
 Vibration    12          0.754              1.501              1.017
 Vibration    13          0.757              1.493              1.004
 Vibration    14          0.769              1.463              0.950
 Vibration    15          0.807              1.366              0.802
 Vibration    16          0.820              1.335              0.761
 Vibration    17          0.851              1.261              0.671
 Vibration    18          0.857              1.246              0.654
 Vibration    19          0.866              1.226              0.631
 Vibration    20          0.929              1.091              0.499

                           ! Non-Optimized Parameters !
 Normal termination of Gaussian 16 at Wed Oct 11 12:14:43 2023.
