 Gaussian 16, Revision A.03,
 Gaussian 16:  ES64L-G16RevA.03 25-Dec-2016

 ----------------------------------------
 #p opt freq b3lyp/6-311+g(2d,p) em=gd3bj
 ----------------------------------------

 -------------------
 Title Card Required
 -------------------
 Symbolic Z-matrix:
 Charge =  0 Multiplicity = 1

 SCF Done:  E(RB3LYP) =  -380.004599192     A.U. after   14 cycles
 SCF Done:  E(RB3LYP) =  -380.004608361     A.U. after    9 cycles
 SCF Done:  E(RB3LYP) =  -380.004610454     A.U. after    8 cycles
 Optimization completed.
    -- Stationary point found.
 Normal termination of Gaussian 16 at Wed Oct 11 11:37:32 2023.

 ----------------------------------------------------------------------
 #P Geom=AllCheck Guess=TCheck SCRF=Check GenChk RB3LYP/6-311+G(2d,p) F
 req
 ----------------------------------------------------------------------

 Structure from the checkpoint file:  "/data0/home/software/g16/scratch/Gau-2479728.chk"
 -------------------
 Title Card Required
 -------------------
 Charge =  0 Multiplicity = 1

                         Standard orientation:
 ---------------------------------------------------------------------
 Center     Atomic      Atomic             Coordinates (Angstroms)
 Number     Number       Type             X           Y           Z
 ---------------------------------------------------------------------
      1          6           0       -0.256762    0.687594   -0.000009
      2          6           0       -0.262765   -0.724238   -0.000027
      3          6           0        0.944126   -1.424018    0.000009
      4          6           0        2.120260   -0.691317    0.000065
      5          6           0        2.108594    0.714039    0.000085
      6          6           0        0.920103    1.429412    0.000041
      7          1           0        0.947915   -2.506373   -0.000046
      8          1           0        3.071714   -1.208264    0.000068
      9          1           0        3.049174    1.250551    0.000113
     10          1           0        0.916554    2.512471    0.000045
     11          1           0       -1.971147    1.974693   -0.000176
     12          6           0       -2.317719   -0.127951    0.000135
     13          1           0       -3.397447   -0.121867    0.000167
     14          7           0       -1.594290    1.041837   -0.000068
     15          7           0       -1.570250   -1.196456   -0.000214
 ---------------------------------------------------------------------

 SCF Done:  E(RB3LYP) =  -380.004610454     A.U. after    1 cycles

 The electronic state is 1-A.
 Alpha  occ. eigenvalues --  -14.37658 -14.30299 -10.24363 -10.21531 -10.19724
 Alpha  occ. eigenvalues --  -10.18338 -10.17650 -10.17409 -10.17170  -1.02665
 Alpha  occ. eigenvalues --   -0.88863  -0.85287  -0.75229  -0.74521  -0.64137
 Alpha  occ. eigenvalues --   -0.62964  -0.60702  -0.55596  -0.50824  -0.49090
 Alpha  occ. eigenvalues --   -0.45182  -0.45176  -0.44344  -0.42509  -0.37453
 Alpha  occ. eigenvalues --   -0.36473  -0.35161  -0.31653  -0.28351  -0.24046
 Alpha  occ. eigenvalues --   -0.23657
 Alpha virt. eigenvalues --   -0.03155  -0.00948   0.00445   0.00995   0.02317
 Alpha virt. eigenvalues --    0.02973   0.03370   0.04172   0.05100   0.05244
 Alpha virt. eigenvalues --    0.06711   0.07871   0.07897   0.08811   0.09703

 Mulliken charges:
               1
     1  C    0.566132
     2  C    0.489175
     3  C   -0.436122
     4  C   -0.087737
     5  C   -0.126516
     6  C   -0.574871
     7  H    0.098410
     8  H    0.081656
     9  H    0.080906
    10  H    0.083462
    11  H    0.253380
    12  C    0.225799
    13  H    0.114498
    14  N   -0.362924
    15  N   -0.405249
 Sum of Mulliken charges =  -0.00000

 Dipole moment (field-independent basis, Debye):
    X=             -0.7450    Y=              3.4271    Z=              0.0002  Tot=              3.5072
 Quadrupole moment (field-independent basis, Debye-Ang):
   XX=            -44.0351   YY=            -48.5704   ZZ=            -56.4259
   XY=             -7.6803   XZ=             -0.0007   YZ=             -0.0009

  Exact polarizability: 129.299  -0.326  98.639   0.001   0.001  53.429
 Approx polarizability: 208.721  -2.861 173.484  -0.002   0.003  83.782

                      1                      2                      3
                      A                      A                      A
 Frequencies --    215.4774               252.4429               391.3315
 Red. masses --      4.0969                 5.3355                 1.2941
 Frc consts  --      0.1121                 0.2003                 0.1168
 IR Inten    --      9.5705                 2.6006                87.0603

                      4                      5                      6
                      A                      A                      A
 Frequencies --    419.5809               426.5862               555.1953
 Red. masses --      4.3673                 2.8430                 7.1368
 Frc consts  --      0.4530                 0.3048                 1.2961
 IR Inten    --      8.2225                 8.2285                 0.2761

                      7                      8                      9
                      A                      A                      A
 Frequencies --    587.5333               634.2107               648.2011
 Red. masses --      3.3065                 6.6673                 2.5989
 Frc consts  --      0.6725                 1.5800                 0.6434
 IR Inten    --      3.4146                 0.1056                 1.8428

                     10                     11                     12
                      A                      A                      A
 Frequencies --    743.9154               767.6096               795.1539
 Red. masses --      1.4507                 3.2985                 4.9975
 Frc consts  --      0.4730                 1.1451                 1.8617
 IR Inten    --     63.8661                14.9942                 4.5904

                     13                     14                     15
                      A                      A                      A
 Frequencies --    847.4292               860.2539               894.7301
 Red. masses --      1.4123                 1.4633                 5.4070
 Frc consts  --      0.5976                 0.6380                 2.5503
 IR Inten    --      1.1410                11.8635                 2.7919

                     16                     17                     18
                      A                      A                      A
 Frequencies --    934.5718               952.0060               973.6247
 Red. masses --      1.3704                 6.4305                 1.2754
 Frc consts  --      0.7052                 3.4338                 0.7123
 IR Inten    --      2.5679                 1.1726                 0.0529

                     19                     20                     21
                      A                      A                      A
 Frequencies --   1028.4867              1091.5484              1133.0957
 Red. masses --      2.1102                 1.7419                 1.6624
 Frc consts  --      1.3151                 1.2228                 1.2575
 IR Inten    --      5.9005                20.4467                 2.2473

                     22                     23                     24
                      A                      A                      A
 Frequencies --   1172.4170              1204.9016              1269.3489
 Red. masses --      1.1872                 2.0640                 2.6235
 Frc consts  --      0.9615                 1.7655                 2.4906
 IR Inten    --      2.3898                 1.2071                25.3288

                     25                     26                     27
                      A                      A                      A
 Frequencies --   1286.0753              1332.3069              1379.9047
 Red. masses --      2.1472                 2.3194                 3.1841
 Frc consts  --      2.0924                 2.4257                 3.5722
 IR Inten    --     32.4433                 6.8330                22.2736

                     28                     29                     30
                      A                      A                      A
 Frequencies --   1417.2256              1478.2166              1519.7996
 Red. masses --      2.2440                 2.4680                 3.7898
 Frc consts  --      2.6556                 3.1773                 5.1574
 IR Inten    --     30.7034                26.0703                11.2296

                     31                     32                     33
                      A                      A                      A
 Frequencies --   1531.4630              1621.6948              1659.3646
 Red. masses --      2.9335                 6.1018                 6.4325
 Frc consts  --      4.0536                 9.4547                10.4355
 IR Inten    --     15.4340                 3.7355                 7.2933

                     34                     35                     36
                      A                      A                      A
 Frequencies --   3166.7413              3175.7428              3187.1054
 Red. masses --      1.0859                 1.0896                 1.0936
 Frc consts  --      6.4163                 6.4744                 6.5447
 IR Inten    --      0.0555                 9.9363                16.3877

                     37                     38                     39
                      A                      A                      A
 Frequencies --   3195.9781              3229.8476              3662.1614
 Red. masses --      1.0956                 1.0972                 1.0807
 Frc consts  --      6.5932                 6.7438                 8.5392
 IR Inten    --      8.7950                 1.0065                66.1024

 - Thermochemistry -
 -------------------
 Temperature   298.150 Kelvin.  Pressure   1.00000 Atm.
 Atom     1 has atomic number  6 and mass  12.00000

 Molecular mass:   118.05310 amu.
 Principal axes and moments of inertia in atomic units:
                           1         2         3
     Eigenvalues --   456.038141073.268921529.30705
           X            0.99981  -0.01957  -0.00002
           Y            0.01957   0.99981  -0.00002
           Z            0.00002   0.00002   1.00000
 This molecule is an asymmetric top.
 Rotational symmetry number  1.
 Warning -- assumption of classical behavior for rotation
           may cause significant error
 Rotational temperatures (Kelvin)      0.18993     0.08070     0.05664
 Rotational constants (GHZ):           3.95743     1.68154     1.18010
 Zero-point vibrational energy     308895.4 (Joules/Mol)
                                   73.82778 (Kcal/Mol)
 Warning -- explicit consideration of   7 degrees of freedom as
           vibrations may cause significant error
 Vibrational temperatures:    310.02   363.21   563.04   603.68   613.76
          (Kelvin)            798.80   845.33   912.49   932.62  1070.33
                             1104.42  1144.05  1219.26  1237.71  1287.32
                             1344.64  1369.72  1400.83  1479.76  1570.49
                             1630.27  1686.85  1733.58  1826.31  1850.38
                             1916.89  1985.38  2039.07  2126.82  2186.65
                             2203.43  2333.26  2387.46  4556.23  4569.19
                             4585.53  4598.30  4647.03  5269.03

 Zero-point correction=                           0.117652 (Hartree/Particle)
 Thermal correction to Energy=                    0.123793
 Thermal correction to Enthalpy=                  0.124738
 Thermal correction to Gibbs Free Energy=         0.087421
 Sum of electronic and zero-point Energies=           -379.886958
 Sum of electronic and thermal Energies=              -379.880817
 Sum of electronic and thermal Enthalpies=            -379.879873
 Sum of electronic and thermal Free Energies=         -379.917189

                     E (Thermal)             CV                S
                      KCal/Mol        Cal/Mol-Kelvin    Cal/Mol-Kelvin
 Total                   77.682             25.277             78.539
 Electronic               0.000              0.000              0.000
 Translational            0.889              2.981             40.213
 Rotational               0.889              2.981             28.106
 Vibrational             75.904             19.316             10.220
 Vibration     1          0.645              1.817              1.997
 Vibration     2          0.664              1.759              1.713
 Vibration     3          0.759              1.489              0.995
 Vibration     4          0.782              1.428              0.893
 Vibration     5          0.788              1.412              0.870
 Vibration     6          0.911              1.128              0.534
 Vibration     7          0.945              1.058              0.472

 Optimization completed.
    -- Stationary point found.
 Normal termination of Gaussian 16 at Wed Oct 11 11:39:38 2023.
