 Gaussian 16, Revision A.03,
 Gaussian 16:  ES64L-G16RevA.03 25-Dec-2016

 ---------------
 #p M052X/6-31G*
 ---------------

 -------------------
 Title Card Required
 -------------------
 Symbolic Z-matrix:
 Charge =  0 Multiplicity = 1

                         Standard orientation:
 ---------------------------------------------------------------------
 Center     Atomic      Atomic             Coordinates (Angstroms)
 Number     Number       Type             X           Y           Z
 ---------------------------------------------------------------------
      1          6           0       -0.256762    0.687594   -0.000009
      2          6           0       -0.262765   -0.724238   -0.000027
      3          6           0        0.944126   -1.424018    0.000009
      4          6           0        2.120260   -0.691317    0.000065
      5          6           0        2.108594    0.714039    0.000085
      6          6           0        0.920103    1.429412    0.000041
      7          1           0        0.947915   -2.506373   -0.000046
      8          1           0        3.071714   -1.208264    0.000068
      9          1           0        3.049174    1.250551    0.000113
     10          1           0        0.916554    2.512471    0.000045
     11          1           0       -1.971147    1.974693   -0.000176
     12          6           0       -2.317719   -0.127951    0.000135
     13          1           0       -3.397447   -0.121867    0.000167
     14          7           0       -1.594290    1.041837   -0.000068
     15          7           0       -1.570250   -1.196456   -0.000214
 ---------------------------------------------------------------------

 SCF Done:  E(RM052X) =  -379.828473106     A.U. after   15 cycles

 The electronic state is 1-A.
 Alpha  occ. eigenvalues --  -14.85836 -14.78002 -10.64536 -10.61489 -10.59464
 Alpha  occ. eigenvalues --  -10.58346 -10.57703 -10.57398 -10.57127  -1.13915
 Alpha  occ. eigenvalues --   -0.98902  -0.95697  -0.84723  -0.84047  -0.72485
 Alpha  occ. eigenvalues --   -0.71131  -0.68609  -0.63140  -0.57820  -0.55997
 Alpha  occ. eigenvalues --   -0.52312  -0.51484  -0.50724  -0.48469  -0.43034
 Alpha  occ. eigenvalues --   -0.42090  -0.41152  -0.36998  -0.34003  -0.28000
 Alpha  occ. eigenvalues --   -0.27596
 Alpha virt. eigenvalues --    0.02548   0.06599   0.10872   0.13366   0.15547
 Alpha virt. eigenvalues --    0.19414   0.20304   0.23437   0.24271   0.24644
 Alpha virt. eigenvalues --    0.27550   0.30182   0.32415   0.35039   0.38547

 Mulliken charges:
               1
     1  C    0.309839
     2  C    0.181934
     3  C   -0.187277
     4  C   -0.189279
     5  C   -0.197282
     6  C   -0.175502
     7  H    0.183531
     8  H    0.168201
     9  H    0.169135
    10  H    0.168318
    11  H    0.363363
    12  C    0.214276
    13  H    0.200885
    14  N   -0.719324
    15  N   -0.490818
 Sum of Mulliken charges =  -0.00000

 Dipole moment (field-independent basis, Debye):
    X=             -0.7755    Y=              3.4434    Z=              0.0003  Tot=              3.5297
 Quadrupole moment (field-independent basis, Debye-Ang):
   XX=            -41.7999   YY=            -46.6848   ZZ=            -55.3044
   XY=             -7.5909   XZ=             -0.0007   YZ=             -0.0009

 Normal termination of Gaussian 16 at Wed Oct 11 11:41:05 2023.
