                               Psi4 1.3.2 release

  ==> Input File <==

--------------------------------------------------------------------------
memory 200 GB

molecule dimer {
0 1
C      3.52200000   17.10600100   17.58099900
C      2.68400000   17.52400000   16.53500000
C      2.06700000   18.77400000   16.61100000
C      2.34900000   19.60700000   17.70400000
C      3.21200000   19.17799900   18.69899900
H      1.38800000   19.11200000   15.81900000
H      4.01100000   16.12000100   17.55800100
H      1.93700000   20.62100000   17.73500100
H      3.49700000   19.82200100   19.53599900
C      2.55100000   16.65600000   15.34100000
H      2.18600000   15.64900000   15.57200000
H      1.90000000   17.09000000   14.56700000
H      3.54600000   16.54500000   14.85000000
N      3.75500000   17.92100000   18.64300000
C      4.64500000   17.47100100   19.73700000
H      4.19500000   17.77000000   20.71200000
H      4.69200000   16.35700000   19.74099900
C      6.06400000   18.05100100   19.60600100
H      6.02900000   19.15099900   19.43000000
H      6.59000000   17.92300000   20.57399900
C      6.87000000   17.39300000   18.48900000
H      7.95500000   17.54100000   18.64900000
H      6.70800000   16.30699900   18.42900100
C      6.48700000   18.06800100   17.15900000
O      6.97800000   19.18000000   16.93700000
O      5.66200000   17.45200000   16.44500000
--
0 1
P      4.53400000   20.24099900   14.67900000
O      3.42400000   20.49099900   15.60900000
O      4.21400000   20.93400000   13.27400000
H      5.02000000   20.75700000   12.65600000
O      5.94500000   20.83300000   15.07300000
H      6.38700000   20.18700000   15.81100000
O      4.75300000   18.71900000   14.28600000
H      5.17600000   18.20000100   15.13200000
}

set {
    scf_type DF
    freeze_core True
    basis aug-cc-pVTZ
}

energy('sapt2+(3)dmp2')
--------------------------------------------------------------------------

  //              Dimer HF             //
    Molecular point group: c1
  Charge       = 0
  Multiplicity = 1
  Basis Set: AUG-CC-PVTZ
    Blend: AUG-CC-PVTZ
  Basis Set: (AUG-CC-PVTZ AUX)
    Blend: AUG-CC-PVTZ-JKFIT
  @DF-RHF Final Energy: -1232.82655516271825
    Total Energy =                      -1232.8265551627182504
  Basis Set: (AUG-CC-PVTZ AUX)
    Blend: AUG-CC-PVTZ-RI
	 Reference Energy          =   -1232.8265551627182504 [Eh]
	 Singles Energy            =      -0.0000000000000000 [Eh]
	 Same-Spin Energy          =      -0.9015495337206907 [Eh]
	 Opposite-Spin Energy      =      -2.6185524206203352 [Eh]
	 Correlation Energy        =      -3.5201019543410261 [Eh]
	 Total Energy              =   -1236.3466571170592943 [Eh]
	 SCS Total Energy          =   -1236.2693345787029102 [Eh]
  //            Monomer A HF           //
    Molecular point group: c1
  Multiplicity = 1
  Basis Set: AUG-CC-PVTZ
    Blend: AUG-CC-PVTZ
  Basis Set: (AUG-CC-PVTZ AUX)
    Blend: AUG-CC-PVTZ-JKFIT
  @DF-RHF Final Energy:  -590.58525304620503
    Total Energy =                       -590.5852530462050254
  Basis Set: (AUG-CC-PVTZ AUX)
	 Singles Energy            =      -0.0000000000000000 [Eh]
	 Same-Spin Energy          =      -0.5908099689212885 [Eh]
	 Opposite-Spin Energy      =      -1.7640069613294578 [Eh]
	 Correlation Energy        =      -2.3548169302507462 [Eh]
	 Total Energy              =    -592.9400699764557885 [Eh]
	 SCS Total Energy          =    -592.8989980561074162 [Eh]
  //            Monomer B HF           //
    Molecular point group: c1

    Geometry (in Angstrom), charge = 0, multiplicity = 1:

       Center              X                  Y                   Z               Mass
    ------------   -----------------  -----------------  -----------------  -----------------
      Gh(C)          -0.973811447238    -1.691981028133     1.015882967976    12.000000000000
      Gh(C)          -1.811811447238    -1.273982028133    -0.030116032024    12.000000000000
      Gh(C)          -2.428811447238    -0.023982028133     0.045883967976    12.000000000000
      Gh(C)          -2.146811447238     0.809017971867     1.138883967976    12.000000000000
      Gh(C)          -1.283811447238     0.380016971867     2.133882967976    12.000000000000
      Gh(H)          -3.107811447238     0.314017971867    -0.746116032024     1.007825032230
      Gh(H)          -0.484811447238    -2.677981028133     0.992884967976     1.007825032230
      Gh(H)          -2.558811447238     1.823017971867     1.169884967976     1.007825032230
      Gh(H)          -0.998811447238     1.024018971867     2.970882967976     1.007825032230
      Gh(C)          -1.944811447238    -2.141982028133    -1.224116032024    12.000000000000
      Gh(H)          -2.309811447238    -3.148982028133    -0.993116032024     1.007825032230
      Gh(H)          -2.595811447238    -1.707982028133    -1.998116032024     1.007825032230
      Gh(H)          -0.949811447238    -2.252982028133    -1.715116032024     1.007825032230
      Gh(N)          -0.740811447238    -0.876982028133     2.077883967976    14.003074004430
      Gh(C)           0.149188552762    -1.326981028133     3.171883967976    12.000000000000
      Gh(H)          -0.300811447238    -1.027982028133     4.146883967976     1.007825032230
      Gh(H)           0.196188552762    -2.440982028133     3.175882967976     1.007825032230
      Gh(C)           1.568188552762    -0.746981028133     3.040884967976    12.000000000000
      Gh(H)           1.533188552762     0.353016971867     2.864883967976     1.007825032230
      Gh(H)           2.094188552762    -0.874982028133     4.008882967976     1.007825032230
      Gh(C)           2.374188552762    -1.404982028133     1.923883967976    12.000000000000
      Gh(H)           3.459188552762    -1.256982028133     2.083883967976     1.007825032230
      Gh(H)           2.212188552762    -2.490983028133     1.863884967976     1.007825032230
      Gh(C)           1.991188552762    -0.729981028133     0.593883967976    12.000000000000
      Gh(O)           2.482188552762     0.382017971867     0.371883967976    15.994914619570
      Gh(O)           1.166188552762    -1.345982028133    -0.120116032024    15.994914619570
         P            0.038188552762     1.443016971867    -1.886116032024    30.973761998420
         O           -1.071811447238     1.693016971867    -0.956116032024    15.994914619570
         O           -0.281811447238     2.136017971867    -3.291116032024    15.994914619570
         H            0.524188552762     1.959017971867    -3.909116032024     1.007825032230
         O            1.449188552762     2.035017971867    -1.492116032024    15.994914619570
         H            1.891188552762     1.389017971867    -0.754116032024     1.007825032230
         O            0.257188552762    -0.078982028133    -2.279116032024    15.994914619570
         H            0.680188552762    -0.597981028133    -1.433116032024     1.007825032230

  Charge       = 0
  Multiplicity = 1
  Basis Set: AUG-CC-PVTZ
    Blend: AUG-CC-PVTZ
  Basis Set: (AUG-CC-PVTZ AUX)
    Blend: AUG-CC-PVTZ-JKFIT

    Orbital Energies [Eh]
    ---------------------

    Doubly Occupied:

       1A    -80.109787     2A    -20.639885     3A    -20.636044
       4A    -20.615554     5A    -20.502734     6A     -7.627789
       7A     -5.526226     8A     -5.526059     9A     -5.524340
      10A     -1.466985    11A     -1.392861    12A     -1.381240
      13A     -1.289134    14A     -0.842936    15A     -0.760978
      16A     -0.738346    17A     -0.700641    18A     -0.645771
      19A     -0.626709    20A     -0.600389    21A     -0.567541
      22A     -0.561560    23A     -0.548066    24A     -0.464106
      25A     -0.459209

  @DF-RHF Final Energy:  -642.17352219433906

   => Energetics <=

    Nuclear Repulsion Energy =            279.6447397076604489
    One-Electron Energy =               -1444.1267372607392190
    Two-Electron Energy =                 522.3084753587397699
    Total Energy =                       -642.1735221943390570

  Dipole Moment: [D]
     X:     5.4993      Y:    -2.8585      Z:    -0.4006     Total:     6.2108

  Basis Set: (AUG-CC-PVTZ AUX)
    Blend: AUG-CC-PVTZ-RI
	 Reference Energy          =    -642.1735221943390570 [Eh]
	 Singles Energy            =      -0.0000000000000000 [Eh]
	 Same-Spin Energy          =      -0.2990007113165065 [Eh]
	 Opposite-Spin Energy      =      -0.8485765216173020 [Eh]
	 Correlation Energy        =      -1.1475772329338085 [Eh]
	 Total Energy              =    -643.3210994272728840 [Eh]

	 ================> DF-SCS-MP2 Energies <==================
	-----------------------------------------------------------
	 SCS Same-Spin Scale       =       0.3333333333333333 [-]
	 SCS Opposite-Spin Scale   =       1.2000000000000000 [-]
	 SCS Same-Spin Energy      =      -0.0996669037721688 [Eh]
	 SCS Opposite-Spin Energy  =      -1.0182918259407623 [Eh]
	 SCS Correlation Energy    =      -1.1179587297129312 [Eh]
	 SCS Total Energy          =    -643.2914809240519389 [Eh]
	-----------------------------------------------------------

    SAPT Results
  --------------------------------------------------------------------------------------------------------
    Electrostatics               -124.56762472 [mEh]     -78.16736464 [kcal/mol]    -327.05225366 [kJ/mol]
      Elst10,r                   -129.31319945 [mEh]     -81.14525774 [kcal/mol]    -339.51175839 [kJ/mol]
      Elst12,r                      4.18762232 [mEh]       2.62777268 [kcal/mol]      10.99460088 [kJ/mol]
      Elst13,r                      0.55795241 [mEh]       0.35012042 [kcal/mol]       1.46490385 [kJ/mol]

    Exchange                      142.22089023 [mEh]      89.24495599 [kcal/mol]     373.40089586 [kJ/mol]
      Exch10                      126.07033561 [mEh]      79.11032996 [kcal/mol]     330.99762054 [kJ/mol]
      Exch10(S^2)                 123.57567585 [mEh]      77.54490733 [kcal/mol]     324.44789225 [kJ/mol]
      Exch11(S^2)                   2.23338497 [mEh]       1.40147023 [kcal/mol]       5.86375142 [kJ/mol]
      Exch12(S^2)                  13.91716966 [mEh]       8.73315581 [kcal/mol]      36.53952390 [kJ/mol]

    Induction                     -64.42530142 [mEh]     -40.42748699 [kcal/mol]    -169.14860557 [kJ/mol]
      Ind20,r                     -81.97448287 [mEh]     -51.43976461 [kcal/mol]    -215.22397512 [kJ/mol]
      Ind22                        -9.94419123 [mEh]      -6.24007421 [kcal/mol]     -26.10847048 [kJ/mol]
      Exch-Ind20,r                 44.95944596 [mEh]      28.21247827 [kcal/mol]     118.04100910 [kJ/mol]
      Exch-Ind22                    5.45395729 [mEh]       3.42240987 [kcal/mol]      14.31936289 [kJ/mol]
      delta HF,r (2)              -27.52202142 [mEh]     -17.27032918 [kcal/mol]     -72.25905728 [kJ/mol]
      delta MP2,r (2)               4.60199085 [mEh]       2.88779286 [kcal/mol]      12.08252532 [kJ/mol]

    Dispersion                    -40.60826905 [mEh]     -25.48207354 [kcal/mol]    -106.61699569 [kJ/mol]
      Disp20                      -48.32045838 [mEh]     -30.32154541 [kcal/mol]    -126.86534599 [kJ/mol]
      Disp30                        1.56019938 [mEh]       0.97903989 [kcal/mol]       4.09630290 [kJ/mol]
      Disp21                        8.06623242 [mEh]       5.06163726 [kcal/mol]      21.17789031 [kJ/mol]
      Disp22 (SDQ)                 -1.96516639 [mEh]      -1.23316052 [kcal/mol]      -5.15954364 [kJ/mol]
      Disp22 (T)                   -9.11186990 [mEh]      -5.71778469 [kcal/mol]     -23.92321113 [kJ/mol]
      Est. Disp22 (T)             -10.11180945 [mEh]      -6.34525623 [kcal/mol]     -26.54855206 [kJ/mol]
      Exch-Disp20                  10.16273337 [mEh]       6.37721147 [kcal/mol]      26.68225278 [kJ/mol]

  Total HF                        -67.77992217 [mEh]     -42.53254330 [kcal/mol]    -177.95616115 [kJ/mol]
  Total SAPT0                    -105.93764718 [mEh]     -66.47687724 [kcal/mol]    -278.13925436 [kJ/mol]
  Total SAPT2                     -90.08970418 [mEh]     -56.53214287 [kcal/mol]    -236.53048575 [kJ/mol]
  Total SAPT2+                    -94.10044760 [mEh]     -59.04892236 [kcal/mol]    -247.06069114 [kJ/mol]
  Total SAPT2+(3)                 -91.98229581 [mEh]     -57.71976204 [kcal/mol]    -241.49948439 [kJ/mol]
  Total SAPT2+dMP2                -89.49845675 [mEh]     -56.16112950 [kcal/mol]    -234.97816581 [kJ/mol]
  Total SAPT2+(3)dMP2             -87.38030496 [mEh]     -54.83196918 [kcal/mol]    -229.41695906 [kJ/mol]

  Special recipe for scaled SAPT0 (see Manual):
    Electrostatics sSAPT0        -129.31319945 [mEh]     -81.14525774 [kcal/mol]    -339.51175839 [kJ/mol]
    Exchange sSAPT0               126.07033561 [mEh]      79.11032996 [kcal/mol]     330.99762054 [kJ/mol]
    Induction sSAPT0              -61.75889183 [mEh]     -38.75428971 [kcal/mol]    -162.14794815 [kJ/mol]
    Dispersion sSAPT0             -37.52974206 [mEh]     -23.55026869 [kcal/mol]     -98.53432421 [kJ/mol]
  Total sSAPT0                   -102.53149773 [mEh]     -64.33948619 [kcal/mol]    -269.19641021 [kJ/mol]
  --------------------------------------------------------------------------------------------------------

*** Psi4 exiting successfully. Buy a developer a beer!
