 Gaussian 16, Revision A.03,
 Gaussian 16:  ES64L-G16RevA.03 25-Dec-2016

 -----------------------------------
 #p opt freq B3LYP/6-311G** em=GD3BJ
 -----------------------------------

 -------------------
 Title Card Required
 -------------------
 Symbolic Z-matrix:
 Charge =  0 Multiplicity = 1

 SCF Done:  E(RB3LYP) =  -916.396664947     A.U. after   14 cycles
 SCF Done:  E(RB3LYP) =  -916.393299408     A.U. after   13 cycles
 SCF Done:  E(RB3LYP) =  -916.405895145     A.U. after   11 cycles
 SCF Done:  E(RB3LYP) =  -916.400860233     A.U. after   14 cycles
 SCF Done:  E(RB3LYP) =  -916.405617664     A.U. after   12 cycles
 SCF Done:  E(RB3LYP) =  -916.407592792     A.U. after   10 cycles
 SCF Done:  E(RB3LYP) =  -916.408226423     A.U. after   11 cycles
 SCF Done:  E(RB3LYP) =  -916.408592338     A.U. after   11 cycles
 SCF Done:  E(RB3LYP) =  -916.408839773     A.U. after   11 cycles
 SCF Done:  E(RB3LYP) =  -916.408886834     A.U. after   10 cycles
 SCF Done:  E(RB3LYP) =  -916.408892728     A.U. after    9 cycles
 SCF Done:  E(RB3LYP) =  -916.408897155     A.U. after    8 cycles
 SCF Done:  E(RB3LYP) =  -916.408898014     A.U. after    8 cycles
 SCF Done:  E(RB3LYP) =  -916.408898115     A.U. after    7 cycles
 Optimization completed.
    -- Stationary point found.
 Normal termination of Gaussian 16 at Wed Apr 20 09:05:15 2022.

 ----------------------------------------------------------------------
 #P Geom=AllCheck Guess=TCheck SCRF=Check GenChk RB3LYP/6-311G(d,p) Fre
 q
 ----------------------------------------------------------------------

 Structure from the checkpoint file:  "TMAPS.chk"
 -------------------
 Title Card Required
 -------------------
 Charge =  0 Multiplicity = 1

                         Standard orientation:
 ---------------------------------------------------------------------
 Center     Atomic      Atomic             Coordinates (Angstroms)
 Number     Number       Type             X           Y           Z
 ---------------------------------------------------------------------
      1          6           0       -2.924230   -0.849684   -1.000046
      2          1           0       -3.481298   -0.114762   -1.579158
      3          1           0       -3.610877   -1.506467   -0.468551
      4          1           0       -2.281218   -1.434453   -1.654128
      5          6           0       -1.097002    0.750706   -0.794101
      6          1           0       -1.742339    1.369139   -1.419919
      7          1           0       -0.517750    0.059526   -1.405525
      8          6           0       -1.323933   -1.188544    0.805318
      9          1           0       -0.634250   -0.713521    1.499811
     10          1           0       -2.075850   -1.785084    1.320645
     11          1           0       -0.711876   -1.774420    0.123060
     12          6           0       -2.914729    0.685646    0.898437
     13          1           0       -3.634455    0.036191    1.394182
     14          1           0       -2.284299    1.166836    1.640699
     15          1           0       -3.433774    1.437756    0.305397
     16          6           0       -0.148023    1.606555    0.058083
     17          1           0       -0.198971    1.327993    1.112146
     18          1           0       -0.444234    2.656672   -0.008878
     19          6           0        1.315510    1.443038   -0.357845
     20          1           0        1.947711    2.127666    0.206776
     21          1           0        1.472274    1.614091   -1.424379
     22          7           0       -2.058035   -0.141829   -0.004152
     23         16           0        1.916487   -0.247512    0.021874
     24          8           0        1.518666   -0.428956    1.447333
     25          8           0        1.115920   -1.119367   -0.902183
     26          8           0        3.356425   -0.226736   -0.247922
 ---------------------------------------------------------------------

 SCF Done:  E(RB3LYP) =  -916.408898115     A.U. after    1 cycles

 The electronic state is 1-A.
 Alpha  occ. eigenvalues --  -88.99848 -19.04417 -19.04175 -19.03872 -14.48163
 Alpha  occ. eigenvalues --  -10.27145 -10.27016 -10.24982 -10.23013 -10.20159
 Alpha  occ. eigenvalues --  -10.17818  -8.05807  -6.02070  -6.02046  -6.02004
 Alpha  occ. eigenvalues --   -1.06592  -1.05763  -0.93208  -0.92617  -0.82780
 Alpha  occ. eigenvalues --   -0.80142  -0.77949  -0.74917  -0.67782  -0.63158
 Alpha  occ. eigenvalues --   -0.57119  -0.56402  -0.55403  -0.53230  -0.50474
 Alpha  occ. eigenvalues --   -0.48934  -0.46798  -0.46489  -0.45569  -0.44373
 Alpha  occ. eigenvalues --   -0.43984  -0.43648  -0.42921  -0.40805  -0.39642
 Alpha  occ. eigenvalues --   -0.39416  -0.37534  -0.36757  -0.28760  -0.28375
 Alpha  occ. eigenvalues --   -0.25102  -0.25027  -0.24304  -0.21033
 Alpha virt. eigenvalues --   -0.01772   0.01467   0.02674   0.03332   0.03881
 Alpha virt. eigenvalues --    0.04920   0.05855   0.06691   0.07797   0.08744
 Alpha virt. eigenvalues --    0.09255   0.10808   0.11527   0.11772   0.12743

 Mulliken charges:
               1
     1  C   -0.184303
     2  H    0.142641
     3  H    0.146434
     4  H    0.178605
     5  C   -0.141589
     6  H    0.136706
     7  H    0.212594
     8  C   -0.211866
     9  H    0.197849
    10  H    0.118436
    11  H    0.204708
    12  C   -0.174227
    13  H    0.146152
    14  H    0.169549
    15  H    0.143832
    16  C   -0.269193
    17  H    0.145574
    18  H    0.127072
    19  C   -0.392144
    20  H    0.160815
    21  H    0.146452
    22  N   -0.334625
    23  S    1.076711
    24  O   -0.600228
    25  O   -0.626125
    26  O   -0.519831
 Sum of Mulliken charges =  -0.00000

 Dipole moment (field-independent basis, Debye):
    X=            -14.9687    Y=              3.4806    Z=             -0.7647  Tot=             15.3870
 Quadrupole moment (field-independent basis, Debye-Ang):
   XX=            -78.7758   YY=            -72.5668   ZZ=            -78.0348
   XY=              7.7715   XZ=             -0.7951   YZ=             -1.0511

  Exact polarizability: 117.807   1.424  95.733  -1.076  -2.158  87.326
 Approx polarizability: 155.122   0.677 139.128  -2.210  -1.140 140.490

                      1                      2                      3
                      A                      A                      A
 Frequencies --     63.9054               122.6959               128.2862
 Red. masses --      3.3155                 7.5572                 4.6243
 Frc consts  --      0.0080                 0.0670                 0.0448
 IR Inten    --      1.5447                 3.4996                19.1740

                      4                      5                      6
                      A                      A                      A
 Frequencies --    183.5988               199.8342               222.6665
 Red. masses --      2.4495                 2.3469                 1.7494
 Frc consts  --      0.0486                 0.0552                 0.0511
 IR Inten    --      2.9579                 6.9247                 2.6424

                      7                      8                      9
                      A                      A                      A
 Frequencies --    241.7239               282.5956               296.7515
 Red. masses --      3.3965                 1.2637                 1.6450
 Frc consts  --      0.1169                 0.0595                 0.0854
 IR Inten    --      3.3918                 2.0738                 0.6796

                     10                     11                     12
                      A                      A                      A
 Frequencies --    304.7468               332.2795               385.7925
 Red. masses --      1.0624                 3.1189                 2.5788
 Frc consts  --      0.0581                 0.2029                 0.2261
 IR Inten    --      0.9332                 1.0508                 0.9266

                     13                     14                     15
                      A                      A                      A
 Frequencies --    394.5721               407.4694               448.8967
 Red. masses --      2.3427                 3.1321                 2.2553
 Frc consts  --      0.2149                 0.3064                 0.2678
 IR Inten    --      8.7248                 4.1448                 2.8158

                     16                     17                     18
                      A                      A                      A
 Frequencies --    463.8938               493.5964               500.7560
 Red. masses --      2.7870                 5.4716                 8.4398
 Frc consts  --      0.3534                 0.7854                 1.2469
 IR Inten    --      1.9721                12.2995                19.2120

                     19                     20                     21
                      A                      A                      A
 Frequencies --    511.7015               574.4026               686.5505
 Red. masses --      3.0048                 4.1789                 4.9177
 Frc consts  --      0.4636                 0.8124                 1.3657
 IR Inten    --     11.7270                23.9811               107.5091

                     22                     23                     24
                      A                      A                      A
 Frequencies --    735.1827               822.0403               868.0848
 Red. masses --      3.5526                 1.6688                 2.2910
 Frc consts  --      1.1313                 0.6644                 1.0172
 IR Inten    --      6.6792                 8.9687                10.9344

                     25                     26                     27
                      A                      A                      A
 Frequencies --    911.9357               944.6560               976.0097
 Red. masses --      2.8464                 2.5043                 6.3644
 Frc consts  --      1.3947                 1.3167                 3.5720
 IR Inten    --      7.4704                27.7883                78.7653

                     28                     29                     30
                      A                      A                      A
 Frequencies --    983.8037              1015.1739              1033.7548
 Red. masses --      3.1941                 1.9117                 1.5034
 Frc consts  --      1.8214                 1.1608                 0.9466
 IR Inten    --     52.3286                15.2658                 1.6350

                     31                     32                     33
                      A                      A                      A
 Frequencies --   1070.1248              1076.6220              1117.0160
 Red. masses --      2.3444                 1.3971                 2.4419
 Frc consts  --      1.5818                 0.9541                 1.7952
 IR Inten    --      8.8586                 9.1063               139.0471

                     34                     35                     36
                      A                      A                      A
 Frequencies --   1139.0979              1150.0944              1183.4490
 Red. masses --      1.3326                 1.7626                 1.3228
 Frc consts  --      1.0187                 1.3737                 1.0915
 IR Inten    --     24.0824                52.2925                24.0746

                     37                     38                     39
                      A                      A                      A
 Frequencies --   1219.1749              1243.7555              1266.7553
 Red. masses --      1.8273                 3.1404                 2.0046
 Frc consts  --      1.6003                 2.8623                 1.8952
 IR Inten    --    102.9617               211.6722                 6.7906

                     40                     41                     42
                      A                      A                      A
 Frequencies --   1273.2246              1302.0875              1334.4425
 Red. masses --      1.6961                 1.8946                 1.2495
 Frc consts  --      1.6200                 1.8926                 1.3110
 IR Inten    --     72.9885                 2.0568                 4.1916

                     43                     44                     45
                      A                      A                      A
 Frequencies --   1358.5734              1377.8579              1438.9547
 Red. masses --      1.3302                 1.2591                 1.1675
 Frc consts  --      1.4465                 1.4083                 1.4243
 IR Inten    --      0.5315                 3.1933                 4.6692

                     46                     47                     48
                      A                      A                      A
 Frequencies --   1452.1753              1455.7303              1461.0617
 Red. masses --      1.1640                 1.1187                 1.0962
 Frc consts  --      1.4462                 1.3968                 1.3787
 IR Inten    --      0.9058                 4.8407                 4.5260

                     49                     50                     51
                      A                      A                      A
 Frequencies --   1468.7508              1473.4407              1488.3684
 Red. masses --      1.0946                 1.0656                 1.0578
 Frc consts  --      1.3912                 1.3631                 1.3807
 IR Inten    --      6.4684                 6.8525                 6.4196

                     52                     53                     54
                      A                      A                      A
 Frequencies --   1490.9099              1496.9816              1513.3468
 Red. masses --      1.0670                 1.0489                 1.0821
 Frc consts  --      1.3973                 1.3848                 1.4601
 IR Inten    --     14.9794                 0.5191                26.7440

                     55                     56                     57
                      A                      A                      A
 Frequencies --   1515.3313              1520.7210              1529.5604
 Red. masses --      1.1156                 1.0814                 1.0782
 Frc consts  --      1.5093                 1.4735                 1.4862
 IR Inten    --     45.2905                36.5553                53.7759

                     58                     59                     60
                      A                      A                      A
 Frequencies --   3042.5477              3052.8241              3058.2569
 Red. masses --      1.0647                 1.0544                 1.0355
 Frc consts  --      5.8070                 5.7899                 5.7063
 IR Inten    --     23.3193                27.1993                64.8488

                     61                     62                     63
                      A                      A                      A
 Frequencies --   3066.5011              3069.0552              3073.4009
 Red. masses --      1.0319                 1.0617                 1.0344
 Frc consts  --      5.7171                 5.8918                 5.7567
 IR Inten    --      7.0096                 5.7040                40.8423

                     64                     65                     66
                      A                      A                      A
 Frequencies --   3089.7923              3119.9937              3131.8547
 Red. masses --      1.0936                 1.1096                 1.1065
 Frc consts  --      6.1513                 6.3640                 6.3944
 IR Inten    --     16.4018                 7.5535                 6.8289

                     67                     68                     69
                      A                      A                      A
 Frequencies --   3150.4942              3156.1356              3156.5019
 Red. masses --      1.1075                 1.1079                 1.1072
 Frc consts  --      6.4764                 6.5025                 6.4998
 IR Inten    --      0.6886                 4.9839                12.9149

                     70                     71                     72
                      A                      A                      A
 Frequencies --   3163.8791              3169.1358              3177.6177
 Red. masses --      1.1084                 1.1072                 1.1049
 Frc consts  --      6.5374                 6.5519                 6.5733
 IR Inten    --      9.5716                 1.3743                 1.3645

 - Thermochemistry -
 -------------------
 Temperature   298.150 Kelvin.  Pressure   1.00000 Atm.
 Atom     1 has atomic number  6 and mass  12.00000

 Molecular mass:   181.07727 amu.
 Principal axes and moments of inertia in atomic units:
                           1         2         3
     Eigenvalues --   929.467283057.160723216.81468
           X            0.99989   0.01481  -0.00222
           Y           -0.01483   0.99984  -0.00978
           Z            0.00208   0.00981   0.99995
 This molecule is an asymmetric top.
 Rotational symmetry number  1.
 Warning -- assumption of classical behavior for rotation
           may cause significant error
 Rotational temperatures (Kelvin)      0.09319     0.02833     0.02693
 Rotational constants (GHZ):           1.94169     0.59033     0.56103
 Zero-point vibrational energy     589956.1 (Joules/Mol)
                                  141.00289 (Kcal/Mol)
 Warning -- explicit consideration of  20 degrees of freedom as
           vibrations may cause significant error
 Vibrational temperatures:     91.95   176.53   184.58   264.16   287.52
          (Kelvin)            320.37   347.79   406.59   426.96   438.46
                              478.08   555.07   567.70   586.26   645.86
                              667.44   710.18   720.48   736.22   826.44
                              987.79  1057.76  1182.73  1248.98  1312.07
                             1359.15  1404.26  1415.47  1460.61  1487.34
                             1539.67  1549.02  1607.14  1638.91  1654.73
                             1702.72  1754.12  1789.49  1822.58  1831.89
                             1873.41  1919.97  1954.68  1982.43  2070.33
                             2089.36  2094.47  2102.14  2113.20  2119.95
                             2141.43  2145.09  2153.82  2177.37  2180.22
                             2187.98  2200.70  4377.55  4392.33  4400.15
                             4412.01  4415.69  4421.94  4445.52  4488.98
                             4506.04  4532.86  4540.98  4541.50  4552.12
                             4559.68  4571.88

 Zero-point correction=                           0.224702 (Hartree/Particle)
 Thermal correction to Energy=                    0.236743
 Thermal correction to Enthalpy=                  0.237687
 Thermal correction to Gibbs Free Energy=         0.187595
 Sum of electronic and zero-point Energies=           -916.184196
 Sum of electronic and thermal Energies=              -916.172155
 Sum of electronic and thermal Enthalpies=            -916.171211
 Sum of electronic and thermal Free Energies=         -916.221304

                     E (Thermal)             CV                S
                      KCal/Mol        Cal/Mol-Kelvin    Cal/Mol-Kelvin
 Total                  148.559             46.716            105.429
 Electronic               0.000              0.000              0.000
 Translational            0.889              2.981             41.488
 Rotational               0.889              2.981             30.592
 Vibrational            146.781             40.755             33.349
 Vibration     1          0.597              1.972              4.333
 Vibration     2          0.610              1.930              3.057
 Vibration     3          0.611              1.925              2.972
 Vibration     4          0.631              1.862              2.292
 Vibration     5          0.638              1.840              2.135
 Vibration     6          0.648              1.807              1.937
 Vibration     7          0.658              1.776              1.790
 Vibration     8          0.682              1.706              1.518
 Vibration     9          0.690              1.680              1.435
 Vibration    10          0.696              1.665              1.391
 Vibration    11          0.714              1.611              1.249
 Vibration    12          0.754              1.501              1.016
 Vibration    13          0.762              1.482              0.983
 Vibration    14          0.772              1.454              0.936
 Vibration    15          0.808              1.363              0.799
 Vibration    16          0.821              1.330              0.755
 Vibration    17          0.849              1.264              0.674
 Vibration    18          0.856              1.248              0.656
 Vibration    19          0.867              1.224              0.630
 Vibration    20          0.931              1.087              0.496

 Optimization completed.
    -- Stationary point found.
 Normal termination of Gaussian 16 at Wed Apr 20 09:10:02 2022.
