 Gaussian 16, Revision A.03,
 Gaussian 16:  ES64L-G16RevA.03 25-Dec-2016

 ------------------------------------
 #p 6-311+g(2d,p) nosymm em=gd3 m062x
 ------------------------------------

 -------------------
 Title Card Required
 -------------------
 Symbolic Z-matrix:
 Charge =  0 Multiplicity = 1

                          Input orientation:
 ---------------------------------------------------------------------
 Center     Atomic      Atomic             Coordinates (Angstroms)
 Number     Number       Type             X           Y           Z
 ---------------------------------------------------------------------
      1          6           0        8.948643   10.625716    5.068885
      2          6           0       10.274057   10.121994    4.847117
      3          6           0       11.205547   10.877091    4.128094
      4          6           0       10.796322   12.109160    3.649407
      5          6           0        9.490488   12.597268    3.871425
      6          6           0        8.548367   11.870921    4.579923
      7          1           0       12.210234   10.493572    3.961523
      8          1           0       11.493525   12.727313    3.084455
      9          1           0        9.224698   13.575539    3.469918
     10          1           0        7.545971   12.249480    4.748516
     11          1           0        7.344952    9.689185    6.127161
     12          6           0        9.201390    8.594028    6.011794
     13          1           0        8.947956    7.692127    6.564643
     14          7           0        8.285003    9.639924    5.809373
     15          7           0       10.380071    8.862794    5.448424
 ---------------------------------------------------------------------

 SCF Done:  E(RM062X) =  -379.816999500     A.U. after   15 cycles

 Alpha  occ. eigenvalues --  -14.81033 -14.74239 -10.62299 -10.58817 -10.57022
 Alpha  occ. eigenvalues --  -10.55262 -10.54606 -10.54496 -10.54130  -1.12106
 Alpha  occ. eigenvalues --   -0.98205  -0.95085  -0.84513  -0.83321  -0.71871
 Alpha  occ. eigenvalues --   -0.70973  -0.68059  -0.62700  -0.57327  -0.55980
 Alpha  occ. eigenvalues --   -0.51669  -0.51352  -0.50787  -0.48688  -0.43165
 Alpha  occ. eigenvalues --   -0.42182  -0.41445  -0.37315  -0.34407  -0.28675
 Alpha  occ. eigenvalues --   -0.28133
 Alpha virt. eigenvalues --   -0.00133   0.00156   0.01796   0.02850   0.03712
 Alpha virt. eigenvalues --    0.03854   0.04656   0.05698   0.05794   0.06621
 Alpha virt. eigenvalues --    0.06842   0.08971   0.09014   0.09775   0.10590

 Mulliken charges:
               1
     1  C    0.433621
     2  C    0.434785
     3  C   -0.398817
     4  C   -0.145207
     5  C   -0.190048
     6  C   -0.565377
     7  H    0.138983
     8  H    0.123926
     9  H    0.123857
    10  H    0.123466
    11  H    0.272070
    12  C    0.164889
    13  H    0.149652
    14  N   -0.326362
    15  N   -0.339439
 Sum of Mulliken charges =  -0.00000

 Dipole moment (field-independent basis, Debye):
    X=             -3.2767    Y=              0.6050    Z=              0.8845  Tot=              3.4475
 Quadrupole moment (field-independent basis, Debye-Ang):
   XX=           -108.4756   YY=            -37.7999   ZZ=            -43.4574
   XY=            -23.9003   XZ=            -14.1049   YZ=              7.2064

 Normal termination of Gaussian 16 at Thu Jun  8 15:31:05 2023.
