 Gaussian 16, Revision A.03,
 Gaussian 16:  ES64L-G16RevA.03 25-Dec-2016

 ------------------------------------
 #p 6-311+g(2d,p) nosymm em=gd3 m062x
 ------------------------------------

 -------------------
 Title Card Required
 -------------------
 Symbolic Z-matrix:
 Charge =  0 Multiplicity = 1

                          Input orientation:
 ---------------------------------------------------------------------
 Center     Atomic      Atomic             Coordinates (Angstroms)
 Number     Number       Type             X           Y           Z
 ---------------------------------------------------------------------
      1         15           0       11.926382    5.960672    6.987054
      2          8           0       10.488782    5.761445    7.098979
      3          8           0       12.824790    4.663145    6.709954
      4          1           0       12.829367    4.487457    5.700903
      5          8           0       12.472143    6.941693    5.865578
      6          1           0       11.756562    7.695621    5.667189
      7          8           0       12.543889    6.469666    8.362004
      8          1           0       13.560871    6.564204    8.247688
 ---------------------------------------------------------------------

 SCF Done:  E(RM062X) =  -644.153314754     A.U. after   12 cycles

 Alpha  occ. eigenvalues --  -78.16797 -19.69314 -19.67910 -19.67466 -19.59020
 Alpha  occ. eigenvalues --   -6.97593  -5.09504  -5.09482  -5.09278  -1.24386
 Alpha  occ. eigenvalues --   -1.17018  -1.16263  -1.09688  -0.72781  -0.65928
 Alpha  occ. eigenvalues --   -0.63915  -0.56410  -0.55525  -0.50858  -0.48776
 Alpha  occ. eigenvalues --   -0.47692  -0.45353  -0.44004  -0.38839  -0.38269
 Alpha virt. eigenvalues --   -0.02129   0.01573   0.01896   0.04721   0.09199
 Alpha virt. eigenvalues --    0.10223   0.12296   0.14581   0.15078   0.15786
 Alpha virt. eigenvalues --    0.17561   0.18128   0.18716   0.20113   0.21515

 Mulliken charges:
               1
     1  P    1.255344
     2  O   -0.592741
     3  O   -0.550596
     4  H    0.320264
     5  O   -0.587152
     6  H    0.344142
     7  O   -0.496720
     8  H    0.307458
 Sum of Mulliken charges =  -0.00000

 Dipole moment (field-independent basis, Debye):
    X=              3.2277    Y=              1.6510    Z=             -2.5475  Tot=              4.4310
 Quadrupole moment (field-independent basis, Debye-Ang):
   XX=             39.2647   YY=            -11.8957   ZZ=            -68.8385
   XY=             37.4242   XZ=             -5.1887   YZ=             -2.9067

 Normal termination of Gaussian 16 at Thu Jun  8 15:32:05 2023.
