 Gaussian 16, Revision A.03,
 Gaussian 16:  ES64L-G16RevA.03 25-Dec-2016

 --------------------------------------
 #p opt freq b3lyp/6-311g(d,p) em=gd3bj
 --------------------------------------

 -------------------
 Title Card Required
 -------------------
 Symbolic Z-matrix:
 Charge =  0 Multiplicity = 1

 SCF Done:  E(RB3LYP) =  -481.066136209     A.U. after   17 cycles
 SCF Done:  E(RB3LYP) =  -481.066291467     A.U. after   12 cycles
 SCF Done:  E(RB3LYP) =  -481.054844951     A.U. after   14 cycles
 SCF Done:  E(RB3LYP) =  -481.066733734     A.U. after   12 cycles
 SCF Done:  E(RB3LYP) =  -481.067972759     A.U. after   15 cycles
 SCF Done:  E(RB3LYP) =  -481.067036424     A.U. after   15 cycles
 SCF Done:  E(RB3LYP) =  -481.069867893     A.U. after   13 cycles
 SCF Done:  E(RB3LYP) =  -481.070537812     A.U. after   12 cycles
 SCF Done:  E(RB3LYP) =  -481.071556289     A.U. after   12 cycles
 SCF Done:  E(RB3LYP) =  -481.072774096     A.U. after   14 cycles
 SCF Done:  E(RB3LYP) =  -481.102571332     A.U. after   11 cycles
 SCF Done:  E(RB3LYP) =  -481.102913937     A.U. after   11 cycles
 SCF Done:  E(RB3LYP) =  -481.103059373     A.U. after   11 cycles
 SCF Done:  E(RB3LYP) =  -481.103076987     A.U. after   11 cycles
 SCF Done:  E(RB3LYP) =  -481.103120999     A.U. after   10 cycles
 SCF Done:  E(RB3LYP) =  -481.103129627     A.U. after    8 cycles
 SCF Done:  E(RB3LYP) =  -481.103132945     A.U. after    8 cycles
 SCF Done:  E(RB3LYP) =  -481.103133432     A.U. after    7 cycles
 SCF Done:  E(RB3LYP) =  -481.103133627     A.U. after    7 cycles
 Optimization completed.
    -- Stationary point found.
 Normal termination of Gaussian 16 at Wed May 18 09:39:49 2022.

 ----------------------------------------------------------------------
 #P Geom=AllCheck Guess=TCheck SCRF=Check GenChk RB3LYP/6-311G(d,p) Fre
 q
 ----------------------------------------------------------------------

 Structure from the checkpoint file:  "TMABA.chk"
 -------------------
 Title Card Required
 -------------------
 Charge =  0 Multiplicity = 1

                         Standard orientation:
 ---------------------------------------------------------------------
 Center     Atomic      Atomic             Coordinates (Angstroms)
 Number     Number       Type             X           Y           Z
 ---------------------------------------------------------------------
      1          6           0       -2.317039    0.808171    0.957584
      2          1           0       -3.018105    1.449909    0.425857
      3          1           0       -2.857992    0.077479    1.557074
      4          1           0       -1.666441    1.407458    1.590706
      5          6           0       -2.319091   -0.718851   -0.950849
      6          1           0       -3.000345   -0.054007   -1.479834
      7          1           0       -1.684072   -1.236207   -1.664964
      8          1           0       -2.881849   -1.442328   -0.362061
      9          6           0       -0.711827    1.135917   -0.839518
     10          1           0       -0.068732    1.693216   -0.155772
     11          1           0       -0.060894    0.653631   -1.562630
     12          1           0       -1.457034    1.758724   -1.332998
     13          6           0       -0.522957   -0.830266    0.759056
     14          1           0       -1.198394   -1.508068    1.283647
     15          1           0       -0.011053   -0.164201    1.456803
     16          6           0        0.535613   -1.585080   -0.061428
     17          1           0        0.399831   -1.420185   -1.134482
     18          1           0        0.411644   -2.659391    0.101813
     19          6           0        1.959956   -1.117039    0.302314
     20          1           0        2.679360   -1.634480   -0.333983
     21          1           0        2.167968   -1.346103    1.351115
     22          7           0       -1.458971    0.091446   -0.038236
     23          6           0        1.999316    0.413622    0.050580
     24          8           0        2.273637    0.773326   -1.107951
     25          8           0        1.565748    1.119872    1.010567
 ---------------------------------------------------------------------

 SCF Done:  E(RB3LYP) =  -481.103133627     A.U. after    1 cycles

 The electronic state is 1-A.
 Alpha  occ. eigenvalues --  -19.00429 -18.99862 -14.46974 -10.26215 -10.25875
 Alpha  occ. eigenvalues --  -10.23475 -10.21997 -10.19913 -10.18529 -10.13694
 Alpha  occ. eigenvalues --   -1.04588  -0.97261  -0.88482  -0.80823  -0.79103
 Alpha  occ. eigenvalues --   -0.76818  -0.72597  -0.65730  -0.60720  -0.55812
 Alpha  occ. eigenvalues --   -0.55296  -0.53780  -0.49006  -0.47975  -0.46376
 Alpha  occ. eigenvalues --   -0.44990  -0.44533  -0.44277  -0.42813  -0.41776
 Alpha  occ. eigenvalues --   -0.41298  -0.38854  -0.36768  -0.36206  -0.35562
 Alpha  occ. eigenvalues --   -0.32853  -0.31177  -0.20031  -0.18524  -0.17800
 Alpha virt. eigenvalues --   -0.00818   0.02382   0.03537   0.04207   0.05188
 Alpha virt. eigenvalues --    0.05526   0.06755   0.07669   0.09065   0.09550
 Alpha virt. eigenvalues --    0.10548   0.11147   0.12237   0.12363   0.13362

 Mulliken charges:
               1
     1  C   -0.184262
     2  H    0.141098
     3  H    0.139354
     4  H    0.184077
     5  C   -0.169680
     6  H    0.142958
     7  H    0.162433
     8  H    0.140419
     9  C   -0.210829
    10  H    0.194694
    11  H    0.175915
    12  H    0.122603
    13  C   -0.153230
    14  H    0.128111
    15  H    0.198547
    16  C   -0.268189
    17  H    0.119025
    18  H    0.123280
    19  C   -0.189491
    20  H    0.109491
    21  H    0.104214
    22  N   -0.336334
    23  C    0.279820
    24  O   -0.459757
    25  O   -0.494268
 Sum of Mulliken charges =  -0.00000

 Dipole moment (field-independent basis, Debye):
    X=            -11.4750    Y=             -3.6579    Z=              0.1495  Tot=             12.0448
 Quadrupole moment (field-independent basis, Debye-Ang):
   XX=            -64.3832   YY=            -64.0392   ZZ=            -65.1789
   XY=             -8.9173   XZ=              2.7149   YZ=             -0.4083

  Exact polarizability:  99.159  -3.946  88.694  -1.740  -1.968  84.716
 Approx polarizability: 128.224  -1.260 127.160  -6.031  -0.846 138.816

                      1                      2                      3
                      A                      A                      A
 Frequencies --     56.0141               126.4754               146.6777
 Red. masses --      3.6614                 9.2573                 3.1994
 Frc consts  --      0.0068                 0.0872                 0.0406
 IR Inten    --      2.7889                 9.4273                 4.7853

                      4                      5                      6
                      A                      A                      A
 Frequencies --    163.3173               222.0869               229.7518
 Red. masses --      3.2767                 1.9942                 1.3999
 Frc consts  --      0.0515                 0.0580                 0.0435
 IR Inten    --     15.3574                13.5533                10.3316

                      7                      8                      9
                      A                      A                      A
 Frequencies --    281.5419               302.4959               332.3820
 Red. masses --      1.3762                 1.6156                 1.4978
 Frc consts  --      0.0643                 0.0871                 0.0975
 IR Inten    --      3.0042                 0.8859                 4.0481

                     10                     11                     12
                      A                      A                      A
 Frequencies --    337.1953               389.5317               412.7880
 Red. masses --      1.7231                 2.3677                 2.4594
 Frc consts  --      0.1154                 0.2117                 0.2469
 IR Inten    --      2.3087                 6.8940                 4.1879

                     13                     14                     15
                      A                      A                      A
 Frequencies --    448.9281               453.8362               477.4061
 Red. masses --      2.6222                 2.1662                 2.2251
 Frc consts  --      0.3114                 0.2629                 0.2988
 IR Inten    --      1.4701                 4.7789                 0.0628

                     16                     17                     18
                      A                      A                      A
 Frequencies --    508.7393               619.7491               710.6479
 Red. masses --      2.4403                 4.1663                 3.0740
 Frc consts  --      0.3721                 0.9428                 0.9147
 IR Inten    --      1.2783                 7.6203                 2.9904

                     19                     20                     21
                      A                      A                      A
 Frequencies --    782.6663               825.7981               873.9391
 Red. masses --      2.6546                 3.5369                 2.6829
 Frc consts  --      0.9581                 1.4211                 1.2073
 IR Inten    --      4.0666                28.3739                27.8895

                     22                     23                     24
                      A                      A                      A
 Frequencies --    885.2452               924.8986               950.7048
 Red. masses --      3.2699                 2.8553                 2.6860
 Frc consts  --      1.5098                 1.4391                 1.4304
 IR Inten    --     20.4011                 4.8942                19.5579

                     25                     26                     27
                      A                      A                      A
 Frequencies --    984.1049              1035.1119              1039.3743
 Red. masses --      2.3557                 1.7859                 1.7252
 Frc consts  --      1.3442                 1.1274                 1.0981
 IR Inten    --     10.6884                 2.4837                 8.2423

                     28                     29                     30
                      A                      A                      A
 Frequencies --   1052.3607              1072.2140              1133.3079
 Red. masses --      2.7788                 1.1990                 1.2229
 Frc consts  --      1.8132                 0.8121                 0.9254
 IR Inten    --      4.1794                 1.3852                 6.1795

                     31                     32                     33
                      A                      A                      A
 Frequencies --   1144.6745              1178.2480              1223.1417
 Red. masses --      1.2732                 1.3128                 1.3540
 Frc consts  --      0.9829                 1.0738                 1.1935
 IR Inten    --      1.5662                 3.4187                 5.6046

                     34                     35                     36
                      A                      A                      A
 Frequencies --   1255.0298              1265.0606              1299.2060
 Red. masses --      1.6527                 1.9651                 1.8276
 Frc consts  --      1.5337                 1.8530                 1.8175
 IR Inten    --      6.2568                 1.0222                 1.9550

                     37                     38                     39
                      A                      A                      A
 Frequencies --   1309.7482              1325.2512              1376.0628
 Red. masses --      1.4772                 1.6495                 1.3131
 Frc consts  --      1.4930                 1.7069                 1.4650
 IR Inten    --     23.7620                46.7193                 8.1464

                     40                     41                     42
                      A                      A                      A
 Frequencies --   1383.0093              1437.5516              1447.0529
 Red. masses --      2.6133                 1.1650                 1.1519
 Frc consts  --      2.9451                 1.4185                 1.4212
 IR Inten    --    123.0894                19.0967                 7.5335

                     43                     44                     45
                      A                      A                      A
 Frequencies --   1452.3705              1458.1384              1470.9325
 Red. masses --      1.1548                 1.0807                 1.0663
 Frc consts  --      1.4353                 1.3538                 1.3593
 IR Inten    --      7.1116                10.5322                 9.8957

                     46                     47                     48
                      A                      A                      A
 Frequencies --   1480.8405              1490.2042              1494.0416
 Red. masses --      1.0881                 1.0703                 1.0710
 Frc consts  --      1.4059                 1.4004                 1.4085
 IR Inten    --      5.9671                 2.5429                 5.7067

                     49                     50                     51
                      A                      A                      A
 Frequencies --   1496.7215              1509.4493              1515.4209
 Red. masses --      1.0547                 1.1165                 1.0714
 Frc consts  --      1.3921                 1.4988                 1.4497
 IR Inten    --      0.9046                 5.5502                67.8420

                     52                     53                     54
                      A                      A                      A
 Frequencies --   1518.4859              1529.5540              1685.6310
 Red. masses --      1.1161                 1.0624                 7.8986
 Frc consts  --      1.5163                 1.4644                13.2229
 IR Inten    --     54.4106                79.8993               332.0010

                     55                     56                     57
                      A                      A                      A
 Frequencies --   3029.2168              3031.0343              3037.7896
 Red. masses --      1.0561                 1.0595                 1.0516
 Frc consts  --      5.7095                 5.7352                 5.7178
 IR Inten    --     33.6792                15.1661               110.4178

                     58                     59                     60
                      A                      A                      A
 Frequencies --   3038.7141              3063.8353              3065.0682
 Red. masses --      1.0573                 1.0593                 1.0667
 Frc consts  --      5.7522                 5.8588                 5.9045
 IR Inten    --     22.2646                26.0824                22.8436

                     61                     62                     63
                      A                      A                      A
 Frequencies --   3070.3850              3101.7946              3103.4052
 Red. masses --      1.0337                 1.1047                 1.1075
 Frc consts  --      5.7418                 6.2622                 6.2844
 IR Inten    --     31.3053                31.7050                 6.1541

                     64                     65                     66
                      A                      A                      A
 Frequencies --   3131.4764              3148.1199              3153.8960
 Red. masses --      1.1042                 1.1072                 1.1063
 Frc consts  --      6.3799                 6.4654                 6.4837
 IR Inten    --      6.3477                 0.4725                17.1678

                     67                     68                     69
                      A                      A                      A
 Frequencies --   3166.7398              3171.5761              3178.2677
 Red. masses --      1.1074                 1.1051                 1.1042
 Frc consts  --      6.5432                 6.5496                 6.5720
 IR Inten    --      0.5262                 3.1655                 2.1857

 - Thermochemistry -
 -------------------
 Temperature   298.150 Kelvin.  Pressure   1.00000 Atm.
 Atom     1 has atomic number  6 and mass  12.00000

 Molecular mass:   145.11028 amu.
 Principal axes and moments of inertia in atomic units:
                           1         2         3
     Eigenvalues --   858.715781925.859562098.79399
           X            0.99943  -0.03328   0.00590
           Y            0.03330   0.99944  -0.00304
           Z           -0.00580   0.00324   0.99998
 This molecule is an asymmetric top.
 Rotational symmetry number  1.
 Warning -- assumption of classical behavior for rotation
           may cause significant error
 Rotational temperatures (Kelvin)      0.10086     0.04497     0.04127
 Rotational constants (GHZ):           2.10167     0.93711     0.85989
 Zero-point vibrational energy     586268.5 (Joules/Mol)
                                  140.12153 (Kcal/Mol)
 Warning -- explicit consideration of  17 degrees of freedom as
           vibrations may cause significant error
 Vibrational temperatures:     80.59   181.97   211.04   234.98   319.53
          (Kelvin)            330.56   405.08   435.22   478.22   485.15
                              560.45   593.91   645.91   652.97   686.88
                              731.96   891.68  1022.46  1126.08  1188.14
                             1257.40  1273.67  1330.72  1367.85  1415.91
                             1489.30  1495.43  1514.11  1542.68  1630.58
                             1646.93  1695.24  1759.83  1805.71  1820.14
                             1869.27  1884.44  1906.74  1979.85  1989.84
                             2068.32  2081.99  2089.64  2097.94  2116.34
                             2130.60  2144.07  2149.59  2153.45  2171.76
                             2180.35  2184.76  2200.69  2425.25  4358.37
                             4360.98  4370.70  4372.03  4408.18  4409.95
                             4417.60  4462.79  4465.11  4505.50  4529.44
                             4537.75  4556.23  4563.19  4572.82

 Zero-point correction=                           0.223298 (Hartree/Particle)
 Thermal correction to Energy=                    0.234174
 Thermal correction to Enthalpy=                  0.235119
 Thermal correction to Gibbs Free Energy=         0.187622
 Sum of electronic and zero-point Energies=           -480.879836
 Sum of electronic and thermal Energies=              -480.868959
 Sum of electronic and thermal Enthalpies=            -480.868015
 Sum of electronic and thermal Free Energies=         -480.915512

                     E (Thermal)             CV                S
                      KCal/Mol        Cal/Mol-Kelvin    Cal/Mol-Kelvin
 Total                  146.947             41.748             99.966
 Electronic               0.000              0.000              0.000
 Translational            0.889              2.981             40.828
 Rotational               0.889              2.981             29.630
 Vibrational            145.169             35.786             29.508
 Vibration     1          0.596              1.975              4.593
 Vibration     2          0.611              1.927              2.999
 Vibration     3          0.617              1.906              2.715
 Vibration     4          0.623              1.887              2.511
 Vibration     5          0.648              1.807              1.942
 Vibration     6          0.652              1.796              1.881
 Vibration     7          0.681              1.708              1.524
 Vibration     8          0.694              1.669              1.403
 Vibration     9          0.714              1.611              1.248
 Vibration    10          0.718              1.601              1.225
 Vibration    11          0.757              1.493              1.002
 Vibration    12          0.777              1.442              0.917
 Vibration    13          0.808              1.363              0.799
 Vibration    14          0.812              1.352              0.784
 Vibration    15          0.834              1.300              0.717
 Vibration    16          0.864              1.231              0.637
 Vibration    17          0.980              0.990              0.417

 Optimization completed.
    -- Stationary point found.
 Normal termination of Gaussian 16 at Wed May 18 09:42:18 2022.
