 Gaussian 16, Revision A.03,
 Gaussian 16:  ES64L-G16RevA.03 25-Dec-2016

 ----------------------------------------
 #p M052X/6-31G* scrf=(smd,solvent=water)
 ----------------------------------------

 -------------------
 Title Card Required
 -------------------
 Symbolic Z-matrix:
 Charge =  0 Multiplicity = 1

                         Standard orientation:
 ---------------------------------------------------------------------
 Center     Atomic      Atomic             Coordinates (Angstroms)
 Number     Number       Type             X           Y           Z
 ---------------------------------------------------------------------
      1          6           0       -1.784851   -1.574988   -0.489527
      2          6           0       -2.748249   -1.189447   -1.398279
      3          6           0       -3.472423   -0.030579   -1.170990
      4          6           0       -3.230790    0.741700   -0.031367
      5          6           0       -2.254213    0.302072    0.840356
      6          1           0       -4.231193    0.282411   -1.877396
      7          1           0       -1.182303   -2.462974   -0.603681
      8          1           0       -2.919637   -1.799189   -2.273640
      9          1           0       -2.001472    0.837444    1.744442
     10          6           0       -3.994949    1.999520    0.247613
     11          1           0       -3.659726    2.467552    1.172329
     12          1           0       -3.866389    2.710878   -0.570924
     13          1           0       -5.062522    1.784897    0.331494
     14          7           0       -1.560628   -0.831844    0.607749
     15          6           0       -0.470258   -1.205313    1.544078
     16          1           0       -0.849094   -1.051123    2.551969
     17          1           0       -0.276449   -2.265631    1.399550
     18          6           0        0.784018   -0.370601    1.314979
     19          1           0        0.545609    0.686164    1.447037
     20          1           0        1.489623   -0.647981    2.099654
     21          6           0        1.408741   -0.607545   -0.051575
     22          1           0        0.749814   -0.309383   -0.867756
     23          1           0        1.684414   -1.653786   -0.190226
     24         16           0        2.919983    0.341743   -0.299443
     25          8           0        3.400264   -0.029925   -1.650891
     26          8           0        3.858297   -0.067088    0.772247
     27          8           0        2.536669    1.770368   -0.203572
 ---------------------------------------------------------------------

 SCF Done:  E(RM052X) =  -1029.28369279     A.U. after   13 cycles

 The electronic state is 1-A.
 Alpha  occ. eigenvalues --  -90.22867 -19.64208 -19.64188 -19.64184 -14.92216
 Alpha  occ. eigenvalues --  -10.65800 -10.65495 -10.62991 -10.62367 -10.62154
 Alpha  occ. eigenvalues --  -10.61213 -10.59014 -10.58505 -10.57125  -8.43514
 Alpha  occ. eigenvalues --   -6.36144  -6.36144  -6.36035  -1.22132  -1.15896
 Alpha  occ. eigenvalues --   -1.07244  -1.07207  -0.97691  -0.92795  -0.91253
 Alpha  occ. eigenvalues --   -0.83974  -0.82800  -0.76433  -0.74209  -0.71285
 Alpha  occ. eigenvalues --   -0.65278  -0.63248  -0.61339  -0.58873  -0.57260
 Alpha  occ. eigenvalues --   -0.55957  -0.54253  -0.54157  -0.53306  -0.52264
 Alpha  occ. eigenvalues --   -0.51531  -0.49830  -0.49229  -0.47634  -0.45564
 Alpha  occ. eigenvalues --   -0.44982  -0.44380  -0.43128  -0.42264  -0.40415
 Alpha  occ. eigenvalues --   -0.40334  -0.37410  -0.35821  -0.35799  -0.34411
 Alpha  occ. eigenvalues --   -0.33918  -0.31997
 Alpha virt. eigenvalues --   -0.03422   0.00632   0.12916   0.15546   0.15972
 Alpha virt. eigenvalues --    0.16297   0.17420   0.18215   0.19068   0.19734
 Alpha virt. eigenvalues --    0.19805   0.20326   0.21114   0.22000   0.22112

 Mulliken charges:
               1
     1  C    0.102712
     2  C   -0.230425
     3  C   -0.111295
     4  C    0.033377
     5  C    0.079671
     6  H    0.254751
     7  H    0.293549
     8  H    0.262622
     9  H    0.287442
    10  C   -0.568080
    11  H    0.214364
    12  H    0.221790
    13  H    0.221489
    14  N   -0.420851
    15  C   -0.234886
    16  H    0.257916
    17  H    0.252826
    18  C   -0.338869
    19  H    0.214945
    20  H    0.222641
    21  C   -0.555718
    22  H    0.236990
    23  H    0.238704
    24  S    1.162928
    25  O   -0.696889
    26  O   -0.700294
    27  O   -0.701410
 Sum of Mulliken charges =  -0.00000

 Dipole moment (field-independent basis, Debye):
    X=            -27.7676    Y=             -6.8072    Z=              3.4885  Tot=             28.8019
 Quadrupole moment (field-independent basis, Debye-Ang):
   XX=           -124.8557   YY=            -83.2043   ZZ=            -84.7375
   XY=            -12.5619   XZ=             11.9015   YZ=              2.9287

 Normal termination of Gaussian 16 at Wed Oct 11 17:24:08 2023.
