 Gaussian 16, Revision A.03,
 Gaussian 16:  ES64L-G16RevA.03 25-Dec-2016

 -----------------------------------------------------------------
 #p opt freq b3lyp/6-311+g(2d,p) scrf=(smd,solvent=water) em=gd3bj
 -----------------------------------------------------------------

 -------------------
 Title Card Required
 -------------------
 Symbolic Z-matrix:
 Charge =  0 Multiplicity = 1

 SCF Done:  E(RB3LYP) =  -1029.69877270     A.U. after   13 cycles
 SCF Done:  E(RB3LYP) =  -1029.69879384     A.U. after    9 cycles
 SCF Done:  E(RB3LYP) =  -1029.69880217     A.U. after    8 cycles
 SCF Done:  E(RB3LYP) =  -1029.69880218     A.U. after    8 cycles
 SCF Done:  E(RB3LYP) =  -1029.69880231     A.U. after    7 cycles
 Optimization completed.
    -- Stationary point found.
 Normal termination of Gaussian 16 at Wed Oct 11 17:11:42 2023.

 ----------------------------------------------------------------------
 #P Geom=AllCheck Guess=TCheck SCRF=Check GenChk RB3LYP/6-311+G(2d,p) F
 req
 ----------------------------------------------------------------------

 Structure from the checkpoint file:  "/data0/home/software/g16/scratch/Gau-2514963.chk"
 -------------------
 Title Card Required
 -------------------
 Charge =  0 Multiplicity = 1

                         Standard orientation:
 ---------------------------------------------------------------------
 Center     Atomic      Atomic             Coordinates (Angstroms)
 Number     Number       Type             X           Y           Z
 ---------------------------------------------------------------------
      1          6           0       -1.784851   -1.574988   -0.489527
      2          6           0       -2.748249   -1.189447   -1.398279
      3          6           0       -3.472423   -0.030579   -1.170990
      4          6           0       -3.230790    0.741700   -0.031367
      5          6           0       -2.254213    0.302072    0.840356
      6          1           0       -4.231193    0.282411   -1.877396
      7          1           0       -1.182303   -2.462974   -0.603681
      8          1           0       -2.919637   -1.799189   -2.273640
      9          1           0       -2.001472    0.837444    1.744442
     10          6           0       -3.994949    1.999520    0.247613
     11          1           0       -3.659726    2.467552    1.172329
     12          1           0       -3.866389    2.710878   -0.570924
     13          1           0       -5.062522    1.784897    0.331494
     14          7           0       -1.560628   -0.831844    0.607749
     15          6           0       -0.470258   -1.205313    1.544078
     16          1           0       -0.849094   -1.051123    2.551969
     17          1           0       -0.276449   -2.265631    1.399550
     18          6           0        0.784018   -0.370601    1.314979
     19          1           0        0.545609    0.686164    1.447037
     20          1           0        1.489623   -0.647981    2.099654
     21          6           0        1.408741   -0.607545   -0.051575
     22          1           0        0.749814   -0.309383   -0.867756
     23          1           0        1.684414   -1.653786   -0.190226
     24         16           0        2.919983    0.341743   -0.299443
     25          8           0        3.400264   -0.029925   -1.650891
     26          8           0        3.858297   -0.067088    0.772247
     27          8           0        2.536669    1.770368   -0.203572
 ---------------------------------------------------------------------

 SCF Done:  E(RB3LYP) =  -1029.69880231     A.U. after    1 cycles

 The electronic state is 1-A.
 Alpha  occ. eigenvalues --  -89.03484 -19.09505 -19.09502 -19.09486 -14.42730
 Alpha  occ. eigenvalues --  -10.24764 -10.24468 -10.22503 -10.21652 -10.21225
 Alpha  occ. eigenvalues --  -10.20557 -10.18999 -10.18203 -10.17055  -8.09095
 Alpha  occ. eigenvalues --   -6.05401  -6.05400  -6.05285  -1.11134  -1.03759
 Alpha  occ. eigenvalues --   -0.97605  -0.97565  -0.86593  -0.82009  -0.80751
 Alpha  occ. eigenvalues --   -0.74110  -0.72948  -0.67263  -0.65246  -0.62489
 Alpha  occ. eigenvalues --   -0.57280  -0.55006  -0.53807  -0.51017  -0.49691
 Alpha  occ. eigenvalues --   -0.48430  -0.46987  -0.46839  -0.46171  -0.45276
 Alpha  occ. eigenvalues --   -0.44580  -0.42851  -0.42422  -0.40908  -0.39098
 Alpha  occ. eigenvalues --   -0.38836  -0.38108  -0.36952  -0.36055  -0.34432
 Alpha  occ. eigenvalues --   -0.34369  -0.31910  -0.30089  -0.30036  -0.29410
 Alpha  occ. eigenvalues --   -0.28882  -0.26315
 Alpha virt. eigenvalues --   -0.08141  -0.04320   0.00284   0.01835   0.02038
 Alpha virt. eigenvalues --    0.02360   0.03698   0.04018   0.04293   0.04595
 Alpha virt. eigenvalues --    0.05492   0.05891   0.06373   0.06628   0.07200

 Mulliken charges:
               1
     1  C   -0.035508
     2  C   -0.063328
     3  C   -0.136168
     4  C    0.566132
     5  C   -0.421487
     6  H    0.156432
     7  H    0.193117
     8  H    0.158852
     9  H    0.185306
    10  C   -0.609978
    11  H    0.151186
    12  H    0.170595
    13  H    0.170454
    14  N    0.403327
    15  C   -0.718622
    16  H    0.194822
    17  H    0.196566
    18  C    0.131402
    19  H    0.162723
    20  H    0.161042
    21  C   -0.426194
    22  H    0.194683
    23  H    0.186428
    24  S    1.346084
    25  O   -0.740166
    26  O   -0.794030
    27  O   -0.783672
 Sum of Mulliken charges =  -0.00000

 Dipole moment (field-independent basis, Debye):
    X=            -28.0539    Y=             -6.8636    Z=              3.6243  Tot=             29.1079
 Quadrupole moment (field-independent basis, Debye-Ang):
   XX=           -128.7009   YY=            -85.8580   ZZ=            -87.4638
   XY=            -12.7380   XZ=             11.7892   YZ=              2.7402

  Exact polarizability: 201.998 -24.778 198.578  20.564  14.617 197.064
 Approx polarizability: 202.626 -28.495 211.643  24.135  17.552 212.200

                      1                      2                      3
                      A                      A                      A
 Frequencies --     28.3061                44.5423                54.8396
 Red. masses --      4.8173                 8.4742                 4.8697
 Frc consts  --      0.0023                 0.0099                 0.0086
 IR Inten    --     10.7082                 2.1408                10.3645

                      4                      5                      6
                      A                      A                      A
 Frequencies --     71.1455                95.8265               147.7575
 Red. masses --      1.0357                 4.5915                 6.2841
 Frc consts  --      0.0031                 0.0248                 0.0808
 IR Inten    --      0.1460                 1.4141                 5.9853

                      7                      8                      9
                      A                      A                      A
 Frequencies --    161.4898               205.2997               218.4700
 Red. masses --      2.8473                 3.5118                 2.9118
 Frc consts  --      0.0437                 0.0872                 0.0819
 IR Inten    --      0.3080                 7.1981                 3.4799

                     10                     11                     12
                      A                      A                      A
 Frequencies --    309.0850               319.4998               346.0320
 Red. masses --      2.3909                 3.7257                 5.7866
 Frc consts  --      0.1346                 0.2241                 0.4082
 IR Inten    --      2.0522                 1.5870                 7.3559

                     13                     14                     15
                      A                      A                      A
 Frequencies --    380.0909               441.1133               449.8615
 Red. masses --      3.7947                 2.3757                 2.7048
 Frc consts  --      0.3230                 0.2724                 0.3225
 IR Inten    --      7.7003                 7.3534                 9.7101

                     16                     17                     18
                      A                      A                      A
 Frequencies --    489.0397               497.3699               518.2562
 Red. masses --      9.9830                10.8502                 4.3833
 Frc consts  --      1.4067                 1.5814                 0.6937
 IR Inten    --     45.9803                45.2621                 9.7430

                     19                     20                     21
                      A                      A                      A
 Frequencies --    546.8660               567.9742               600.1489
 Red. masses --      4.9903                 5.8358                 3.6472
 Frc consts  --      0.8793                 1.1092                 0.7740
 IR Inten    --      6.9240                50.2958                70.2164

                     22                     23                     24
                      A                      A                      A
 Frequencies --    697.0430               736.2829               754.5006
 Red. masses --      2.0222                 2.9801                 3.8524
 Frc consts  --      0.5789                 0.9518                 1.2921
 IR Inten    --     54.9862                 2.0408                50.6984

                     25                     26                     27
                      A                      A                      A
 Frequencies --    788.7738               819.4010               894.5413
 Red. masses --      1.6206                 1.4636                 2.2537
 Frc consts  --      0.5941                 0.5790                 1.0625
 IR Inten    --     43.6330                29.9618                 0.1203

                     28                     29                     30
                      A                      A                      A
 Frequencies --    921.4569               925.5466               971.5596
 Red. masses --      1.3850                 2.4498                 1.3674
 Frc consts  --      0.6929                 1.2364                 0.7605
 IR Inten    --      3.7170                 2.8586                 1.8348

                     31                     32                     33
                      A                      A                      A
 Frequencies --    990.9803               997.5109              1021.6025
 Red. masses --      2.8924                 5.2453                 1.3720
 Frc consts  --      1.6735                 3.0751                 0.8437
 IR Inten    --    108.4634               194.5739                 0.4999

                     34                     35                     36
                      A                      A                      A
 Frequencies --   1030.7229              1060.2571              1063.3171
 Red. masses --      1.5590                 2.2655                 4.1940
 Frc consts  --      0.9758                 1.5005                 2.7938
 IR Inten    --      4.9493                83.8686                11.1907

                     37                     38                     39
                      A                      A                      A
 Frequencies --   1074.1665              1084.0962              1109.1004
 Red. masses --      1.5705                 2.6160                10.9699
 Frc consts  --      1.0677                 1.8115                 7.9505
 IR Inten    --     12.5570                 6.9370               633.3510

                     40                     41                     42
                      A                      A                      A
 Frequencies --   1110.5522              1139.8136              1175.1392
 Red. masses --      9.3539                 1.6631                 1.6966
 Frc consts  --      6.7970                 1.2730                 1.3804
 IR Inten    --    593.0994                56.0118                29.8681

                     43                     44                     45
                      A                      A                      A
 Frequencies --   1192.6989              1224.6052              1246.9070
 Red. masses --      1.3436                 1.3298                 1.4132
 Frc consts  --      1.1261                 1.1750                 1.2946
 IR Inten    --     35.1285                27.9898                47.1817

                     46                     47                     48
                      A                      A                      A
 Frequencies --   1272.4286              1293.3929              1327.6524
 Red. masses --      2.9116                 1.4229                 1.2069
 Frc consts  --      2.7775                 1.4024                 1.2534
 IR Inten    --     26.6909                 7.4452                 5.3494

                     49                     50                     51
                      A                      A                      A
 Frequencies --   1353.4518              1378.3027              1388.1536
 Red. masses --      2.4489                 1.2951                 1.3169
 Frc consts  --      2.6431                 1.4496                 1.4952
 IR Inten    --     32.6371                 3.6013                 5.9291

                     52                     53                     54
                      A                      A                      A
 Frequencies --   1396.4647              1413.7829              1449.5697
 Red. masses --      1.3756                 1.2442                 1.0991
 Frc consts  --      1.5806                 1.4652                 1.3607
 IR Inten    --      6.1489                 3.8444                 2.8932

                     55                     56                     57
                      A                      A                      A
 Frequencies --   1460.5409              1464.1417              1480.9212
 Red. masses --      1.2149                 1.0433                 1.0913
 Frc consts  --      1.5270                 1.3177                 1.4101
 IR Inten    --      4.6300                15.5912                23.8350

                     58                     59                     60
                      A                      A                      A
 Frequencies --   1488.6447              1521.7958              1540.2346
 Red. masses --      1.2014                 1.5309                 2.4828
 Frc consts  --      1.5687                 2.0889                 3.4703
 IR Inten    --     16.1027                40.1794                89.9637

                     61                     62                     63
                      A                      A                      A
 Frequencies --   1628.6655              1672.2549              3044.2211
 Red. masses --      5.3812                 4.6201                 1.0368
 Frc consts  --      8.4099                 7.6122                 5.6610
 IR Inten    --      7.9751                39.2310                11.3882

                     64                     65                     66
                      A                      A                      A
 Frequencies --   3058.7327              3069.9851              3096.3482
 Red. masses --      1.0593                 1.0580                 1.0916
 Frc consts  --      5.8391                 5.8750                 6.1659
 IR Inten    --      5.9995                16.8806                 1.2565

                     67                     68                     69
                      A                      A                      A
 Frequencies --   3097.4097              3106.8490              3125.7375
 Red. masses --      1.1012                 1.0715                 1.1067
 Frc consts  --      6.2246                 6.0937                 6.3704
 IR Inten    --      9.1726                16.1724                17.1054

                     70                     71                     72
                      A                      A                      A
 Frequencies --   3130.4741              3158.1221              3195.4889
 Red. masses --      1.1023                 1.1095                 1.0919
 Frc consts  --      6.3647                 6.5199                 6.5694
 IR Inten    --     17.2662                 5.1536                 1.7234

                     73                     74                     75
                      A                      A                      A
 Frequencies --   3216.7306              3224.0830              3249.2784
 Red. masses --      1.0953                 1.0938                 1.0968
 Frc consts  --      6.6775                 6.6988                 6.8227
 IR Inten    --      5.5021                 0.5900                 6.2405

 - Thermochemistry -
 -------------------
 Temperature   298.150 Kelvin.  Pressure   1.00000 Atm.
 Atom     1 has atomic number  6 and mass  12.00000

 Molecular mass:   215.06162 amu.
 Principal axes and moments of inertia in atomic units:
                           1         2         3
     Eigenvalues --  1496.601216437.325446556.84667
           X            0.99982  -0.01845   0.00421
           Y            0.01806   0.99676   0.07832
           Z           -0.00564  -0.07823   0.99692
 This molecule is an asymmetric top.
 Rotational symmetry number  1.
 Warning -- assumption of classical behavior for rotation
           may cause significant error
 Rotational temperatures (Kelvin)      0.05787     0.01345     0.01321
 Rotational constants (GHZ):           1.20589     0.28036     0.27525
 Zero-point vibrational energy     573175.4 (Joules/Mol)
                                  136.99222 (Kcal/Mol)
 Warning -- explicit consideration of  21 degrees of freedom as
           vibrations may cause significant error
 Vibrational temperatures:     40.73    64.09    78.90   102.36   137.87
          (Kelvin)            212.59   232.35   295.38   314.33   444.70
                              459.69   497.86   546.87   634.66   647.25
                              703.62   715.60   745.66   786.82   817.19
                              863.48  1002.89  1059.35  1085.56  1134.87
                             1178.94  1287.05  1325.77  1331.66  1397.86
                             1425.80  1435.20  1469.86  1482.98  1525.47
                             1529.88  1545.49  1559.77  1595.75  1597.84
                             1639.94  1690.76  1716.03  1761.93  1794.02
                             1830.74  1860.90  1910.20  1947.32  1983.07
                             1997.24  2009.20  2034.12  2085.61  2101.39
                             2106.57  2130.72  2141.83  2189.52  2216.05
                             2343.29  2406.00  4379.96  4400.83  4417.02
                             4454.95  4456.48  4470.06  4497.24  4504.05
                             4543.83  4597.60  4628.16  4638.74  4674.99

 Zero-point correction=                           0.218311 (Hartree/Particle)
 Thermal correction to Energy=                    0.231979
 Thermal correction to Enthalpy=                  0.232923
 Thermal correction to Gibbs Free Energy=         0.175874
 Sum of electronic and zero-point Energies=          -1029.480491
 Sum of electronic and thermal Energies=             -1029.466823
 Sum of electronic and thermal Enthalpies=           -1029.465879
 Sum of electronic and thermal Free Energies=        -1029.522928

                     E (Thermal)             CV                S
                      KCal/Mol        Cal/Mol-Kelvin    Cal/Mol-Kelvin
 Total                  145.569             50.803            120.070
 Electronic               0.000              0.000              0.000
 Translational            0.889              2.981             42.001
 Rotational               0.889              2.981             32.513
 Vibrational            143.792             44.842             45.557
 Vibration     1          0.593              1.984              5.945
 Vibration     2          0.595              1.980              5.046
 Vibration     3          0.596              1.976              4.635
 Vibration     4          0.598              1.968              4.121
 Vibration     5          0.603              1.952              3.537
 Vibration     6          0.617              1.905              2.701
 Vibration     7          0.622              1.890              2.532
 Vibration     8          0.640              1.832              2.085
 Vibration     9          0.646              1.813              1.972
 Vibration    10          0.698              1.656              1.367
 Vibration    11          0.705              1.636              1.313
 Vibration    12          0.724              1.583              1.184
 Vibration    13          0.750              1.513              1.039
 Vibration    14          0.801              1.380              0.823
 Vibration    15          0.809              1.361              0.796
 Vibration    16          0.845              1.274              0.686
 Vibration    17          0.853              1.256              0.665
 Vibration    18          0.873              1.210              0.614
 Vibration    19          0.902              1.147              0.551
 Vibration    20          0.924              1.101              0.508
 Vibration    21          0.958              1.031              0.449

                           ! Non-Optimized Parameters !
 Normal termination of Gaussian 16 at Wed Oct 11 17:21:25 2023.
