 Gaussian 16, Revision A.03,
 Gaussian 16:  ES64L-G16RevA.03 25-Dec-2016

 --------------------------------------------------------
 #p opt freq b3lyp/6-311+g(2d,p) scrf=(smd,solvent=water)
 --------------------------------------------------------

 -------------------
 Title Card Required
 -------------------
 Symbolic Z-matrix:
 Charge =  0 Multiplicity = 1

 SCF Done:  E(RB3LYP) =  -892.728366403     A.U. after   12 cycles
 SCF Done:  E(RB3LYP) =  -892.728500906     A.U. after   10 cycles
 SCF Done:  E(RB3LYP) =  -892.727335862     A.U. after   13 cycles
 SCF Done:  E(RB3LYP) =  -892.728399370     A.U. after   10 cycles
 SCF Done:  E(RB3LYP) =  -892.728552961     A.U. after    8 cycles
 SCF Done:  E(RB3LYP) =  -892.728611483     A.U. after   10 cycles
 SCF Done:  E(RB3LYP) =  -892.728635934     A.U. after    9 cycles
 SCF Done:  E(RB3LYP) =  -892.728680668     A.U. after   10 cycles
 SCF Done:  E(RB3LYP) =  -892.728732512     A.U. after    9 cycles
 SCF Done:  E(RB3LYP) =  -892.728823385     A.U. after    9 cycles
 SCF Done:  E(RB3LYP) =  -892.729042850     A.U. after    7 cycles
 SCF Done:  E(RB3LYP) =  -892.729042908     A.U. after    6 cycles
 SCF Done:  E(RB3LYP) =  -892.729043135     A.U. after    7 cycles
 SCF Done:  E(RB3LYP) =  -892.729043213     A.U. after    7 cycles
 SCF Done:  E(RB3LYP) =  -892.729043255     A.U. after    7 cycles
 SCF Done:  E(RB3LYP) =  -892.729043248     A.U. after    7 cycles
 SCF Done:  E(RB3LYP) =  -892.729043273     A.U. after    6 cycles
 SCF Done:  E(RB3LYP) =  -892.729043284     A.U. after    6 cycles
 SCF Done:  E(RB3LYP) =  -892.729043260     A.U. after    6 cycles
 Optimization completed.
    -- Stationary point found.
 Normal termination of Gaussian 16 at Sun Dec 11 19:27:09 2022.

 ----------------------------------------------------------------------
 #P Geom=AllCheck Guess=TCheck SCRF=Check GenChk RB3LYP/6-311+G(2d,p) F
 req
 ----------------------------------------------------------------------

 Structure from the checkpoint file:  "/data0/home/software/g16/scratch/Gau-1553304.chk"
 -------------------
 Title Card Required
 -------------------
 Charge =  0 Multiplicity = 1

                         Standard orientation:
 ---------------------------------------------------------------------
 Center     Atomic      Atomic             Coordinates (Angstroms)
 Number     Number       Type             X           Y           Z
 ---------------------------------------------------------------------
      1          6           0        1.850410    1.017488    0.081442
      2          6           0        3.192478    1.317920   -0.024176
      3          6           0        4.112366    0.275936   -0.087874
      4          6           0        3.669232   -1.042390   -0.044507
      5          6           0        2.316278   -1.287970    0.062617
      6          7           0        1.451374   -0.263344    0.122526
      7          1           0        5.170210    0.490396   -0.171231
      8          1           0        1.071373    1.764581    0.135207
      9          1           0        3.506910    2.351364   -0.056371
     10          1           0        4.359833   -1.872418   -0.092524
     11          1           0        1.890180   -2.280099    0.102905
     12         15           0       -2.274068    0.070568   -0.030898
     13          8           0       -1.971570    1.460499   -0.488194
     14          8           0       -3.114726   -0.636336   -1.228588
     15          1           0       -3.171835   -1.597261   -1.120372
     16          8           0       -1.161834   -0.859759    0.401793
     17          1           0        0.420464   -0.470998    0.209289
     18          8           0       -3.343321    0.201475    1.186042
     19          1           0       -3.408729   -0.613608    1.705452
 ---------------------------------------------------------------------

 SCF Done:  E(RB3LYP) =  -892.729043260     A.U. after    1 cycles

 The electronic state is 1-A.
 Alpha  occ. eigenvalues --  -77.16178 -19.14280 -19.14272 -19.08633 -19.07765
 Alpha  occ. eigenvalues --  -14.40421 -10.24820 -10.24782 -10.21601 -10.20530
 Alpha  occ. eigenvalues --  -10.20515  -6.63975  -4.80315  -4.80211  -4.80019
 Alpha  occ. eigenvalues --   -1.07541  -1.02046  -1.02004  -0.97356  -0.94745
 Alpha  occ. eigenvalues --   -0.84440  -0.80737  -0.67554  -0.67507  -0.60933
 Alpha  occ. eigenvalues --   -0.59567  -0.54648  -0.52449  -0.51463  -0.48861
 Alpha  occ. eigenvalues --   -0.46946  -0.46547  -0.45409  -0.43758  -0.41751
 Alpha  occ. eigenvalues --   -0.39870  -0.39625  -0.38496  -0.36848  -0.34772
 Alpha  occ. eigenvalues --   -0.33363  -0.33038  -0.30171  -0.29902  -0.29853
 Alpha  occ. eigenvalues --   -0.28820
 Alpha virt. eigenvalues --   -0.07690  -0.04560  -0.00722   0.01343   0.02760
 Alpha virt. eigenvalues --    0.03380   0.03861   0.04331   0.05258   0.05910
 Alpha virt. eigenvalues --    0.06339   0.06684   0.08613   0.08792   0.09435

 Mulliken charges:
               1
     1  C   -0.004874
     2  C   -0.058497
     3  C   -0.021729
     4  C   -0.033382
     5  C   -0.033139
     6  N   -0.250685
     7  H    0.158186
     8  H    0.193455
     9  H    0.157344
    10  H    0.157150
    11  H    0.185895
    12  P    1.547258
    13  O   -0.939397
    14  O   -0.621955
    15  H    0.337556
    16  O   -0.969615
    17  H    0.481555
    18  O   -0.624318
    19  H    0.339192
 Sum of Mulliken charges =  -0.00000

 Dipole moment (field-independent basis, Debye):
    X=             15.5393    Y=             -6.0478    Z=              1.9241  Tot=             16.7854
 Quadrupole moment (field-independent basis, Debye-Ang):
   XX=            -48.0500   YY=            -64.4300   ZZ=            -74.9981
   XY=             17.7201   XZ=             -6.8817   YZ=              2.0337

  Exact polarizability: 157.982  -0.348 157.492  -3.936  -1.887  99.582
 Approx polarizability: 166.741  -0.547 171.372  -4.541  -2.821 102.984

                      1                      2                      3
                      A                      A                      A
 Frequencies --     19.9708                27.8640                46.1485
 Red. masses --      8.4934                 5.0638                 6.2241
 Frc consts  --      0.0020                 0.0023                 0.0078
 IR Inten    --      6.0693                 7.9334                17.4662

                      4                      5                      6
                      A                      A                      A
 Frequencies --     82.0970                92.0116               140.7448
 Red. masses --      5.1950                 5.2718                 6.2919
 Frc consts  --      0.0206                 0.0263                 0.0734
 IR Inten    --     12.8986                18.9108                23.0904

                      7                      8                      9
                      A                      A                      A
 Frequencies --    199.2590               291.4753               346.9561
 Red. masses --      1.3063                 1.2352                 5.6507
 Frc consts  --      0.0306                 0.0618                 0.4008
 IR Inten    --    106.2322               303.2576                37.2165

                     10                     11                     12
                      A                      A                      A
 Frequencies --    376.8751               405.8997               409.6659
 Red. masses --      3.4373                 2.6938                 3.2820
 Frc consts  --      0.2877                 0.2615                 0.3245
 IR Inten    --     84.9818                 0.0049                 0.2747

                     13                     14                     15
                      A                      A                      A
 Frequencies --    454.3423               472.1888               479.2219
 Red. masses --      5.4541                13.8959                13.3015
 Frc consts  --      0.6633                 1.8254                 1.7998
 IR Inten    --     53.4783               141.6860               110.0697

                     16                     17                     18
                      A                      A                      A
 Frequencies --    622.6953               656.6779               690.4164
 Red. masses --      6.0277                 6.3083                 1.7155
 Frc consts  --      1.3771                 1.6028                 0.4818
 IR Inten    --     38.9010                 0.2886               113.6714

                     19                     20                     21
                      A                      A                      A
 Frequencies --    766.8570               784.3195               806.3244
 Red. masses --      1.6236                14.8347                18.4827
 Frc consts  --      0.5625                 5.3767                 7.0800
 IR Inten    --     81.0630               180.2339               551.0479

                     22                     23                     24
                      A                      A                      A
 Frequencies --    886.0038               960.5267              1008.9689
 Red. masses --      1.2464                 1.2941                 1.4204
 Frc consts  --      0.5765                 0.7035                 0.8520
 IR Inten    --      0.0030                16.2907                 0.0020

                     25                     26                     27
                      A                      A                      A
 Frequencies --   1019.8231              1033.3091              1042.6299
 Red. masses --      5.8774                 8.0491                 1.1338
 Frc consts  --      3.6015                 5.0636                 0.7262
 IR Inten    --    185.0112               428.1722               145.0200

                     28                     29                     30
                      A                      A                      A
 Frequencies --   1043.0709              1048.1497              1068.8525
 Red. masses --      1.3583                 3.6524                 1.4465
 Frc consts  --      0.8707                 2.3642                 0.9736
 IR Inten    --     10.9004                61.8859                24.1505

                     31                     32                     33
                      A                      A                      A
 Frequencies --   1083.8218              1089.1475              1117.0041
 Red. masses --      2.0478                 1.7227                 1.1157
 Frc consts  --      1.4172                 1.2040                 0.8202
 IR Inten    --      3.0687                13.2956                64.9443

                     34                     35                     36
                      A                      A                      A
 Frequencies --   1178.0324              1207.9666              1216.6538
 Red. masses --      1.0983                 4.8053                 1.2713
 Frc consts  --      0.8980                 4.1312                 1.1087
 IR Inten    --      7.0121               677.4081                47.0284

                     37                     38                     39
                      A                      A                      A
 Frequencies --   1295.8268              1363.9205              1434.3471
 Red. masses --      2.6226                 1.5828                 1.5537
 Frc consts  --      2.5947                 1.7348                 1.8834
 IR Inten    --     20.8806                12.9102                14.2726

                     40                     41                     42
                      A                      A                      A
 Frequencies --   1522.5858              1593.3306              1667.8103
 Red. masses --      2.0074                 2.4531                 4.8161
 Frc consts  --      2.7419                 3.6693                 7.8929
 IR Inten    --     50.6755                23.2777                31.7067

                     43                     44                     45
                      A                      A                      A
 Frequencies --   1674.8730              2813.9107              3201.1788
 Red. masses --      2.0415                 1.1096                 1.0912
 Frc consts  --      3.3741                 5.1766                 6.5886
 IR Inten    --     92.5200              3343.2647                 1.3773

                     46                     47                     48
                      A                      A                      A
 Frequencies --   3221.3444              3223.7633              3235.6065
 Red. masses --      1.0919                 1.0941                 1.0973
 Frc consts  --      6.6761                 6.6995                 6.7685
 IR Inten    --      0.2739                 1.8122                 3.5263

                     49                     50                     51
                      A                      A                      A
 Frequencies --   3238.4898              3774.9651              3780.0344
 Red. masses --      1.0987                 1.0656                 1.0658
 Frc consts  --      6.7892                 8.9467                 8.9726
 IR Inten    --      1.0962                95.4997               273.2661

 - Thermochemistry -
 -------------------
 Temperature   298.150 Kelvin.  Pressure   1.00000 Atm.
 Atom     1 has atomic number  6 and mass  12.00000

 Molecular mass:   177.01910 amu.
 Principal axes and moments of inertia in atomic units:
                           1         2         3
     Eigenvalues --   714.108064792.448325093.58089
           X            0.99998   0.00624  -0.00266
           Y           -0.00622   0.99996   0.00680
           Z            0.00270  -0.00679   0.99997
 This molecule is an asymmetric top.
 Rotational symmetry number  1.
 Warning -- assumption of classical behavior for rotation
           may cause significant error
 Rotational temperatures (Kelvin)      0.12129     0.01807     0.01700
 Rotational constants (GHZ):           2.52727     0.37658     0.35432
 Zero-point vibrational energy     366164.7 (Joules/Mol)
                                   87.51547 (Kcal/Mol)
 Warning -- explicit consideration of  15 degrees of freedom as
           vibrations may cause significant error
 Vibrational temperatures:     28.73    40.09    66.40   118.12   132.38
          (Kelvin)            202.50   286.69   419.37   499.19   542.24
                              584.00   589.42   653.70   679.37   689.49
                              895.92   944.81   993.36  1103.34  1128.46
                             1160.12  1274.76  1381.98  1451.68  1467.30
                             1486.70  1500.11  1500.75  1508.05  1537.84
                             1559.38  1567.04  1607.12  1694.93  1737.99
                             1750.49  1864.41  1962.38  2063.71  2190.66
                             2292.45  2399.61  2409.77  4048.59  4605.78
                             4634.80  4638.28  4655.32  4659.46  5431.33
                             5438.63

 Zero-point correction=                           0.139465 (Hartree/Particle)
 Thermal correction to Energy=                    0.151272
 Thermal correction to Enthalpy=                  0.152217
 Thermal correction to Gibbs Free Energy=         0.098334
 Sum of electronic and zero-point Energies=           -892.589578
 Sum of electronic and thermal Energies=              -892.577771
 Sum of electronic and thermal Enthalpies=            -892.576827
 Sum of electronic and thermal Free Energies=         -892.630709

                     E (Thermal)             CV                S
                      KCal/Mol        Cal/Mol-Kelvin    Cal/Mol-Kelvin
 Total                   94.925             41.347            113.405
 Electronic               0.000              0.000              0.000
 Translational            0.889              2.981             41.420
 Rotational               0.889              2.981             31.234
 Vibrational             93.147             35.385             40.751
 Vibration     1          0.593              1.986              6.637
 Vibration     2          0.593              1.984              5.976
 Vibration     3          0.595              1.979              4.976
 Vibration     4          0.600              1.961              3.840
 Vibration     5          0.602              1.955              3.617
 Vibration     6          0.615              1.913              2.794
 Vibration     7          0.637              1.841              2.140
 Vibration     8          0.687              1.690              1.465
 Vibration     9          0.725              1.581              1.180
 Vibration    10          0.747              1.519              1.052
 Vibration    11          0.771              1.457              0.941
 Vibration    12          0.774              1.449              0.928
 Vibration    13          0.813              1.351              0.783
 Vibration    14          0.829              1.312              0.731
 Vibration    15          0.836              1.296              0.712

                           ! Non-Optimized Parameters !
 Normal termination of Gaussian 16 at Sun Dec 11 19:31:14 2022.
