 Gaussian 16, Revision A.03,
 Gaussian 16:  ES64L-G16RevA.03 25-Dec-2016

 ------------------------------------
 #p 6-311+g(2d,p) nosymm em=gd3 m062x
 ------------------------------------

 -------------------
 Title Card Required
 -------------------
 Symbolic Z-matrix:
 Charge =  0 Multiplicity = 1

                          Input orientation:
 ---------------------------------------------------------------------
 Center     Atomic      Atomic             Coordinates (Angstroms)
 Number     Number       Type             X           Y           Z
 ---------------------------------------------------------------------
      1          6           0        7.376550   16.153538   13.646782
      2          6           0        6.401802   15.292664   14.148368
      3          6           0        6.425034   15.001460   11.964912
      4          7           0        7.387914   15.965734   12.261906
      5          1           0        7.980702   16.440985   11.620559
      6          1           0        8.023607   16.844050   14.142925
      7          1           0        6.081588   15.131500   15.159162
      8          1           0        6.206462   14.650139   10.963832
      9          7           0        5.828580   14.592677   13.096457
 ---------------------------------------------------------------------

 SCF Done:  E(RM062X) =  -226.188147007     A.U. after   12 cycles

 Alpha  occ. eigenvalues --  -14.81246 -14.73503 -10.60551 -10.57743 -10.55829
 Alpha  occ. eigenvalues --   -1.11655  -0.97047  -0.83769  -0.70459  -0.66940
 Alpha  occ. eigenvalues --   -0.64285  -0.51385  -0.50561  -0.50199  -0.48084
 Alpha  occ. eigenvalues --   -0.34439  -0.34104  -0.28598
 Alpha virt. eigenvalues --    0.00520   0.02612   0.03538   0.03871   0.05314
 Alpha virt. eigenvalues --    0.06145   0.06280   0.08062   0.08202   0.10213
 Alpha virt. eigenvalues --    0.10330   0.12449   0.12747   0.15095   0.15706

 Mulliken charges:
               1
     1  C   -0.128723
     2  C   -0.036611
     3  C    0.047035
     4  N   -0.240051
     5  H    0.257306
     6  H    0.136649
     7  H    0.126648
     8  H    0.146897
     9  N   -0.309151
 Sum of Mulliken charges =  -0.00000

 Dipole moment (field-independent basis, Debye):
    X=              2.5611    Y=              2.2459    Z=             -1.4449  Tot=              3.7002
 Quadrupole moment (field-independent basis, Debye-Ang):
   XX=              3.4800   YY=             38.0667   ZZ=            -60.1809
   XY=             56.1834   XZ=             22.2725   YZ=              7.0976

 Normal termination of Gaussian 16 at Mon Jul 10 15:20:27 2023.
