 Gaussian 16, Revision A.03,
 Gaussian 16:  ES64L-G16RevA.03 25-Dec-2016

 ------------------------------------
 #p 6-311+g(2d,p) nosymm em=gd3 m062x
 ------------------------------------

 -------------------
 Title Card Required
 -------------------
 Symbolic Z-matrix:
 Charge =  0 Multiplicity = 1

                          Input orientation:
 ---------------------------------------------------------------------
 Center     Atomic      Atomic             Coordinates (Angstroms)
 Number     Number       Type             X           Y           Z
 ---------------------------------------------------------------------
      1         15           0        3.469642   12.465723   11.252991
      2          8           0        4.499475   12.837902   10.294270
      3          8           0        3.789670   12.592614   12.802439
      4          1           0        4.506273   13.352754   12.967075
      5          8           0        2.131680   13.290930   11.008408
      6          1           0        1.423984   12.974341   11.682976
      7          8           0        2.920019   10.961825   11.185899
      8          1           0        3.537021   10.371172   11.751049
 ---------------------------------------------------------------------

 SCF Done:  E(RM062X) =  -644.153315496     A.U. after   12 cycles

 Alpha  occ. eigenvalues --  -78.16804 -19.69320 -19.67882 -19.67449 -19.59024
 Alpha  occ. eigenvalues --   -6.97598  -5.09511  -5.09485  -5.09284  -1.24376
 Alpha  occ. eigenvalues --   -1.17009  -1.16244  -1.09699  -0.72793  -0.65967
 Alpha  occ. eigenvalues --   -0.63908  -0.56428  -0.55465  -0.50833  -0.48856
 Alpha  occ. eigenvalues --   -0.47649  -0.45295  -0.44004  -0.38850  -0.38270
 Alpha virt. eigenvalues --   -0.02137   0.01561   0.01931   0.04727   0.09186
 Alpha virt. eigenvalues --    0.10182   0.12307   0.14590   0.15044   0.15825
 Alpha virt. eigenvalues --    0.17573   0.18070   0.18745   0.20046   0.21524

 Mulliken charges:
               1
     1  P    1.253460
     2  O   -0.590750
     3  O   -0.588211
     4  H    0.344615
     5  O   -0.496236
     6  H    0.307337
     7  O   -0.550683
     8  H    0.320467
 Sum of Mulliken charges =  -0.00000

 Dipole moment (field-independent basis, Debye):
    X=             -0.8078    Y=             -0.8733    Z=              4.3192  Tot=              4.4800
 Quadrupole moment (field-independent basis, Debye-Ang):
   XX=            -38.7964   YY=            -53.9367   ZZ=             60.0507
   XY=            -13.9067   XZ=              8.5719   YZ=             46.0616

 Normal termination of Gaussian 16 at Mon Jul 10 15:20:46 2023.
