                               Psi4 1.3.2 release

  ==> Input File <==

--------------------------------------------------------------------------
memory 200 GB

molecule dimer {
0 1
C      4.78700000    8.88300000    8.69100000
C      5.30300000    9.45800000    7.53500000
C      6.16400000   10.54800000    9.30900000
N      5.33600000    9.56900000    9.77600000
H      4.09200000    8.07300000    8.80500000
H      5.12100000    9.22000000    6.50400000
H      6.74600000   11.26100000    9.90900000
C      4.95400000    9.41200000   11.16700000
H      4.25300000   10.23700000   11.46000000
H      4.46100000    8.44500000   11.34700000
H      5.83800000    9.50000000   11.84000000
N      6.16700000   10.47800000    7.93500000
C      6.75500000   11.50900000    7.08000000
H      7.37900000   11.02300000    6.29700000
H      7.43900000   12.14600000    7.70900000
C      5.69200000   12.42300000    6.43100000
H      6.21500000   13.34900000    6.10000000
H      5.28900000   11.94900000    5.51800000
C      4.53700000   12.81800000    7.35200000
H      3.71800000   12.07800000    7.30700000
H      4.09600000   13.78100000    7.03200000
C      4.99800000   12.97600000    8.80700000
O      5.99300000   13.67800000    9.03400000
O      4.38300000   12.28700000    9.65300000
--
0 1
P      6.33000000   12.86200000   12.47100000
O      7.10400000   11.63400000   12.25600000
O      4.76400000   12.69200000   12.26900000
H      4.56100000   12.59900000   11.22100000
O      6.46100000   13.35000000   13.98300000
H      5.90500000   14.21700000   14.07000000
O      6.76500000   14.13400000   11.63300000
H      6.47300000   13.99200000   10.61800000
}

set {
    scf_type DF
    freeze_core True
    basis aug-cc-pVTZ
}

energy('sapt2+(3)dmp2')
--------------------------------------------------------------------------

  //              Dimer HF             //
    Molecular point group: c1
  Charge       = 0
  Multiplicity = 1
  Basis Set: AUG-CC-PVTZ
    Blend: AUG-CC-PVTZ
  Basis Set: (AUG-CC-PVTZ AUX)
    Blend: AUG-CC-PVTZ-JKFIT
  @DF-RHF Final Energy: -1210.96045944043840
    Total Energy =                      -1210.9604594404383988
  Basis Set: (AUG-CC-PVTZ AUX)
    Blend: AUG-CC-PVTZ-RI
	 Reference Energy          =   -1210.9604594404383988 [Eh]
	 Singles Energy            =      -0.0000000000000000 [Eh]
	 Same-Spin Energy          =      -0.8717002668857061 [Eh]
	 Opposite-Spin Energy      =      -2.5326282797115547 [Eh]
	 Correlation Energy        =      -3.4043285465972608 [Eh]
	 Total Energy              =   -1214.3647879870356974 [Eh]
	 SCS Total Energy          =   -1214.2901801317209447 [Eh]
  //            Monomer A HF           //
    Molecular point group: c1
  Multiplicity = 1
  Basis Set: AUG-CC-PVTZ
    Blend: AUG-CC-PVTZ
  Basis Set: (AUG-CC-PVTZ AUX)
    Blend: AUG-CC-PVTZ-JKFIT
  @DF-RHF Final Energy:  -568.70725268325509
    Total Energy =                       -568.7072526832550921
  Basis Set: (AUG-CC-PVTZ AUX)
	 Singles Energy            =      -0.0000000000000000 [Eh]
	 Same-Spin Energy          =      -0.5651208891416633 [Eh]
	 Opposite-Spin Energy      =      -1.6832123750241044 [Eh]
	 Correlation Energy        =      -2.2483332641657676 [Eh]
	 Total Energy              =    -570.9555859474209001 [Eh]
	 SCS Total Energy          =    -570.9154811629979349 [Eh]
  //            Monomer B HF           //
    Molecular point group: c1

    Geometry (in Angstrom), charge = 0, multiplicity = 1:

       Center              X                  Y                   Z               Mass
    ------------   -----------------  -----------------  -----------------  -----------------
      Gh(C)          -0.944588690955    -2.966083920564    -1.338224345585    12.000000000000
      Gh(C)          -0.428588690955    -2.391083920564    -2.494224345585    12.000000000000
      Gh(C)           0.432411309045    -1.301083920564    -0.720224345585    12.000000000000
      Gh(N)          -0.395588690955    -2.280083920564    -0.253224345585    14.003074004430
      Gh(H)          -1.639588690955    -3.776083920564    -1.224224345585     1.007825032230
      Gh(H)          -0.610588690955    -2.629083920564    -3.525224345585     1.007825032230
      Gh(H)           1.014411309045    -0.588083920564    -0.120224345585     1.007825032230
      Gh(C)          -0.777588690955    -2.437083920564     1.137775654415    12.000000000000
      Gh(H)          -1.478588690955    -1.612083920564     1.430775654415     1.007825032230
      Gh(H)          -1.270588690955    -3.404083920564     1.317775654415     1.007825032230
      Gh(H)           0.106411309045    -2.349083920564     1.810775654415     1.007825032230
      Gh(N)           0.435411309045    -1.371083920564    -2.094224345585    14.003074004430
      Gh(C)           1.023411309045    -0.340083920564    -2.949224345585    12.000000000000
      Gh(H)           1.647411309045    -0.826083920564    -3.732224345585     1.007825032230
      Gh(H)           1.707411309045     0.296916079436    -2.320224345585     1.007825032230
      Gh(C)          -0.039588690955     0.573916079436    -3.598224345585    12.000000000000
      Gh(H)           0.483411309045     1.499916079436    -3.929224345585     1.007825032230
      Gh(H)          -0.442588690955     0.099916079436    -4.511224345585     1.007825032230
      Gh(C)          -1.194588690955     0.968916079436    -2.677224345585    12.000000000000
      Gh(H)          -2.013588690955     0.228916079436    -2.722224345585     1.007825032230
      Gh(H)          -1.635588690955     1.931916079436    -2.997224345585     1.007825032230
      Gh(C)          -0.733588690955     1.126916079436    -1.222224345585    12.000000000000
      Gh(O)           0.261411309045     1.828916079436    -0.995224345585    15.994914619570
      Gh(O)          -1.348588690955     0.437916079436    -0.376224345585    15.994914619570
         P            0.598411309045     1.012916079436     2.441775654415    30.973761998420
         O            1.372411309045    -0.215083920564     2.226775654415    15.994914619570
         O           -0.967588690955     0.842916079436     2.239775654415    15.994914619570
         H           -1.170588690955     0.749916079436     1.191775654415     1.007825032230
         O            0.729411309045     1.500916079436     3.953775654415    15.994914619570
         H            0.173411309045     2.367916079436     4.040775654415     1.007825032230
         O            1.033411309045     2.284916079436     1.603775654415    15.994914619570
         H            0.741411309045     2.142916079436     0.588775654415     1.007825032230

  Charge       = 0
  Multiplicity = 1
  Basis Set: AUG-CC-PVTZ
    Blend: AUG-CC-PVTZ
  Basis Set: (AUG-CC-PVTZ AUX)
    Blend: AUG-CC-PVTZ-JKFIT

    Orbital Energies [Eh]
    ---------------------

    Doubly Occupied:

       1A    -80.109694     2A    -20.637257     3A    -20.633060
       4A    -20.618918     5A    -20.503429     6A     -7.627817
       7A     -5.526249     8A     -5.526048     9A     -5.524427
      10A     -1.466992    11A     -1.391701    12A     -1.383725
      13A     -1.290915    14A     -0.844052    15A     -0.761388
      16A     -0.740920    17A     -0.699479    18A     -0.643932
      19A     -0.626125    20A     -0.603582    21A     -0.567839
      22A     -0.561728    23A     -0.549194    24A     -0.465769
      25A     -0.459942

  @DF-RHF Final Energy:  -642.17779432675673

   => Energetics <=

    Nuclear Repulsion Energy =            279.7858194464709527
    One-Electron Energy =               -1444.3988608593588197
    Two-Electron Energy =                 522.4352470861311986
    Total Energy =                       -642.1777943267567252

  Dipole Moment: [D]
     X:    -3.5227      Y:     3.9372      Z:    -2.9004     Total:     6.0269

  Basis Set: (AUG-CC-PVTZ AUX)
    Blend: AUG-CC-PVTZ-RI
	 Reference Energy          =    -642.1777943267567252 [Eh]
	 Singles Energy            =      -0.0000000000000000 [Eh]
	 Same-Spin Energy          =      -0.2986010525875267 [Eh]
	 Opposite-Spin Energy      =      -0.8472136552201209 [Eh]
	 Correlation Energy        =      -1.1458147078076477 [Eh]
	 Total Energy              =    -643.3236090345643561 [Eh]

	 ================> DF-SCS-MP2 Energies <==================
	-----------------------------------------------------------
	 SCS Same-Spin Scale       =       0.3333333333333333 [-]
	 SCS Opposite-Spin Scale   =       1.2000000000000000 [-]
	 SCS Same-Spin Energy      =      -0.0995336841958422 [Eh]
	 SCS Opposite-Spin Energy  =      -1.0166563862641451 [Eh]
	 SCS Correlation Energy    =      -1.1161900704599874 [Eh]
	 SCS Total Energy          =    -643.2939843972167182 [Eh]
	-----------------------------------------------------------

    SAPT Results
  --------------------------------------------------------------------------------------------------------
    Electrostatics               -102.21433767 [mEh]     -64.14046525 [kcal/mol]    -268.36370659 [kJ/mol]
      Elst10,r                   -106.19068503 [mEh]     -66.63566089 [kcal/mol]    -278.80360515 [kJ/mol]
      Elst12,r                      3.91750500 [mEh]       2.45827150 [kcal/mol]      10.28540797 [kJ/mol]
      Elst13,r                      0.05884236 [mEh]       0.03692414 [kcal/mol]       0.15449059 [kJ/mol]

    Exchange                       90.86330779 [mEh]      57.01758646 [kcal/mol]     238.56158173 [kJ/mol]
      Exch10                       77.98192000 [mEh]      48.93439359 [kcal/mol]     204.74150276 [kJ/mol]
      Exch10(S^2)                  76.61227447 [mEh]      48.07492804 [kcal/mol]     201.14549892 [kJ/mol]
      Exch11(S^2)                   1.02303189 [mEh]       0.64196220 [kcal/mol]       2.68596985 [kJ/mol]
      Exch12(S^2)                  11.85835590 [mEh]       7.44123067 [kcal/mol]      31.13410912 [kJ/mol]

    Induction                     -49.25666793 [mEh]     -30.90902577 [kcal/mol]    -129.32336384 [kJ/mol]
      Ind20,r                     -52.33250851 [mEh]     -32.83914488 [kcal/mol]    -137.39898217 [kJ/mol]
      Ind22                        -8.10177281 [mEh]      -5.08393919 [kcal/mol]     -21.27120158 [kJ/mol]
      Exch-Ind20,r                 24.27326912 [mEh]      15.23170633 [kcal/mol]      63.72945930 [kJ/mol]
      Exch-Ind22                    3.75782697 [mEh]       2.35807202 [kcal/mol]       9.86617334 [kJ/mol]
      delta HF,r (2)              -19.14442601 [mEh]     -12.01330869 [kcal/mol]     -50.26368356 [kJ/mol]
      delta MP2,r (2)               2.29094330 [mEh]       1.43758863 [kcal/mol]       6.01487082 [kJ/mol]

    Dispersion                    -28.48787049 [mEh]     -17.87640862 [kcal/mol]     -74.79489368 [kJ/mol]
      Disp20                      -30.76764061 [mEh]     -19.30698597 [kcal/mol]     -80.78042928 [kJ/mol]
      Disp30                        1.05540630 [mEh]       0.66227745 [kcal/mol]       2.77096886 [kJ/mol]
      Disp21                        3.33407576 [mEh]       2.09216413 [kcal/mol]       8.75361470 [kJ/mol]
      Disp22 (SDQ)                 -1.48129474 [mEh]      -0.92952648 [kcal/mol]      -3.88913881 [kJ/mol]
      Disp22 (T)                   -5.79386587 [mEh]      -3.63570572 [kcal/mol]     -15.21179275 [kJ/mol]
      Est. Disp22 (T)              -6.46959294 [mEh]      -4.05973086 [kcal/mol]     -16.98591392 [kJ/mol]
      Exch-Disp20                   5.84117573 [mEh]       3.66539311 [kcal/mol]      15.33600477 [kJ/mol]

  Total HF                        -75.41243043 [mEh]     -47.32201453 [kcal/mol]    -197.99530881 [kJ/mol]
  Total SAPT0                    -100.33889530 [mEh]     -62.96360739 [kcal/mol]    -263.43973332 [kJ/mol]
  Total SAPT2                     -87.88394835 [mEh]     -55.14801019 [kcal/mol]    -230.73927462 [kJ/mol]
  Total SAPT2+                    -92.50076027 [mEh]     -58.04510340 [kcal/mol]    -242.86071264 [kJ/mol]
  Total SAPT2+(3)                 -91.38651161 [mEh]     -57.34590181 [kcal/mol]    -239.93525319 [kJ/mol]
  Total SAPT2+dMP2                -90.20981697 [mEh]     -56.60751478 [kcal/mol]    -236.84584182 [kJ/mol]
  Total SAPT2+(3)dMP2             -89.09556831 [mEh]     -55.90831319 [kcal/mol]    -233.92038237 [kJ/mol]

  Special recipe for scaled SAPT0 (see Manual):
    Electrostatics sSAPT0        -106.19068503 [mEh]     -66.63566089 [kcal/mol]    -278.80360515 [kJ/mol]
    Exchange sSAPT0                77.98192000 [mEh]      48.93439359 [kcal/mol]     204.74150276 [kJ/mol]
    Induction sSAPT0              -45.87840757 [mEh]     -28.78913540 [kcal/mol]    -120.45374249 [kJ/mol]
    Dispersion sSAPT0             -24.60755176 [mEh]     -15.44147186 [kcal/mol]     -64.60711825 [kJ/mol]
  Total sSAPT0                    -98.69472437 [mEh]     -61.93187455 [kcal/mol]    -259.12296312 [kJ/mol]
  --------------------------------------------------------------------------------------------------------

*** Psi4 exiting successfully. Buy a developer a beer!
