 Gaussian 16, Revision A.03,
 Gaussian 16:  ES64L-G16RevA.03 25-Dec-2016

 ------------------------------------
 #p 6-311+g(2d,p) nosymm em=gd3 m062x
 ------------------------------------

 -------------------
 Title Card Required
 -------------------
 Symbolic Z-matrix:
 Charge =  0 Multiplicity = 1

                          Input orientation:
 ---------------------------------------------------------------------
 Center     Atomic      Atomic             Coordinates (Angstroms)
 Number     Number       Type             X           Y           Z
 ---------------------------------------------------------------------
      1         15           0       15.592068   15.932012   15.084966
      2          8           0       15.597429   14.600959   15.711283
      3          8           0       16.211873   16.046873   13.641773
      4          1           0       15.589300   15.490322   12.953563
      5          8           0       14.171768   16.636026   15.077968
      6          1           0       13.501721   16.063182   14.473590
      7          8           0       16.484383   16.933778   15.951465
      8          1           0       16.463438   17.848042   15.472570
 ---------------------------------------------------------------------

 SCF Done:  E(RM062X) =  -644.134843381     A.U. after   12 cycles

 Alpha  occ. eigenvalues --  -78.16715 -19.69768 -19.69037 -19.67828 -19.57868
 Alpha  occ. eigenvalues --   -6.97512  -5.09428  -5.09406  -5.09176  -1.24507
 Alpha  occ. eigenvalues --   -1.17410  -1.16467  -1.08095  -0.72639  -0.65563
 Alpha  occ. eigenvalues --   -0.63624  -0.58800  -0.52632  -0.52360  -0.50077
 Alpha  occ. eigenvalues --   -0.46485  -0.45077  -0.44712  -0.37765  -0.36713
 Alpha virt. eigenvalues --   -0.03838   0.01023   0.02463   0.04671   0.07922
 Alpha virt. eigenvalues --    0.09472   0.10615   0.12291   0.15669   0.16961
 Alpha virt. eigenvalues --    0.17816   0.18604   0.19750   0.20120   0.21707

 Mulliken charges:
               1
     1  P    1.290180
     2  O   -0.629847
     3  O   -0.554127
     4  H    0.322737
     5  O   -0.563321
     6  H    0.318014
     7  O   -0.484233
     8  H    0.300597
 Sum of Mulliken charges =  -0.00000

 Dipole moment (field-independent basis, Debye):
    X=             -2.1786    Y=              2.4554    Z=             -4.4463  Tot=              5.5267
 Quadrupole moment (field-independent basis, Debye-Ang):
   XX=           -100.9225   YY=             41.6538   ZZ=           -167.2304
   XY=              6.7341   XZ=            -98.4423   YZ=            -29.6777

 Normal termination of Gaussian 16 at Thu Jun  8 16:08:52 2023.
