 Gaussian 16, Revision A.03,
 Gaussian 16:  ES64L-G16RevA.03 25-Dec-2016

 ------------------------------------
 #p 6-311+g(2d,p) nosymm em=gd3 m062x
 ------------------------------------

 -------------------
 Title Card Required
 -------------------
 Symbolic Z-matrix:
 Charge =  0 Multiplicity = 1

                          Input orientation:
 ---------------------------------------------------------------------
 Center     Atomic      Atomic             Coordinates (Angstroms)
 Number     Number       Type             X           Y           Z
 ---------------------------------------------------------------------
      1          6           0       14.558913   11.576957   16.279051
      2          1           0       14.831688   10.543117   16.022662
      3          1           0       14.474363   11.664434   17.374549
      4          1           0       15.408881   12.230528   15.975180
      5          6           0       13.570648   12.163878   14.106837
      6          1           0       14.180029   11.306534   13.756664
      7          1           0       14.222868   13.079107   13.990146
      8          6           0       12.810686   13.293373   16.189368
      9          1           0       13.664966   14.001376   16.346348
     10          1           0       12.133808   13.843098   15.497187
     11          1           0       12.313673   13.149366   17.153573
     12          6           0       12.252017   10.937355   15.826071
     13          1           0       12.161170   10.693394   16.897900
     14          1           0       11.257188   11.271268   15.477957
     15          1           0       12.503885   10.010637   15.284512
     16          6           0       12.294039   12.293580   13.263754
     17          1           0       11.516121   12.881425   13.802852
     18          1           0       11.849955   11.295046   13.083969
     19          6           0       12.587315   12.961758   11.927604
     20          1           0       11.708297   12.897399   11.262751
     21          1           0       13.404528   12.454478   11.389312
     22          7           0       13.287302   12.001147   15.595057
     23         16           0       13.032525   14.734639   12.098048
     24          8           0       12.593098   15.076440   13.490370
     25          8           0       14.521553   14.699646   12.031084
     26          8           0       12.338526   15.418854   11.020043
 ---------------------------------------------------------------------

 SCF Done:  E(RM062X) =  -916.136038981     A.U. after   13 cycles

 Alpha  occ. eigenvalues --  -90.02912 -19.53912 -19.53718 -19.52868 -14.93452
 Alpha  occ. eigenvalues --  -10.65448 -10.65414 -10.63281 -10.63104 -10.57135
 Alpha  occ. eigenvalues --  -10.53786  -8.36306  -6.28596  -6.28557  -6.28532
 Alpha  occ. eigenvalues --   -1.17964  -1.16994  -1.04033  -1.02067  -0.92433
 Alpha  occ. eigenvalues --   -0.89785  -0.88703  -0.83970  -0.76672  -0.71262
 Alpha  occ. eigenvalues --   -0.65094  -0.64566  -0.63386  -0.60572  -0.57634
 Alpha  occ. eigenvalues --   -0.56050  -0.53899  -0.52689  -0.52015  -0.51336
 Alpha  occ. eigenvalues --   -0.50382  -0.50042  -0.49772  -0.47671  -0.46863
 Alpha  occ. eigenvalues --   -0.44978  -0.43725  -0.42109  -0.35259  -0.34851
 Alpha  occ. eigenvalues --   -0.31600  -0.30762  -0.29388  -0.26838
 Alpha virt. eigenvalues --   -0.03508  -0.01207  -0.00995   0.00461   0.00692
 Alpha virt. eigenvalues --    0.02366   0.02562   0.02834   0.03395   0.04563
 Alpha virt. eigenvalues --    0.06285   0.06487   0.07226   0.07870   0.08276

 Mulliken charges:
               1
     1  C   -0.393862
     2  H    0.208211
     3  H    0.205582
     4  H    0.231939
     5  C   -0.332842
     6  H    0.208214
     7  H    0.271337
     8  C   -0.396778
     9  H    0.232186
    10  H    0.261137
    11  H    0.196524
    12  C   -0.348643
    13  H    0.208671
    14  H    0.223940
    15  H    0.220979
    16  C   -0.061303
    17  H    0.186071
    18  H    0.156586
    19  C   -0.632622
    20  H    0.196409
    21  H    0.189453
    22  N   -0.237289
    23  S    1.096069
    24  O   -0.720128
    25  O   -0.669296
    26  O   -0.500547
 Sum of Mulliken charges =  -0.00000

 Dipole moment (field-independent basis, Debye):
    X=             -0.2479    Y=            -13.3545    Z=             12.7351  Tot=             18.4550
 Quadrupole moment (field-independent basis, Debye-Ang):
   XX=            -83.0768   YY=           -436.2399   ZZ=            278.5274
   XY=           -178.4830   XZ=            167.2390   YZ=             -9.2718

 Normal termination of Gaussian 16 at Thu Jun  8 16:08:21 2023.
