 Gaussian 16, Revision A.03,
 Gaussian 16:  ES64L-G16RevA.03 25-Dec-2016

 -------------------------------------------------------
 #p B3LYP/6-311+G(2d,p) opt freq scrf(smd,solvent=water)
 -------------------------------------------------------

 -------------------
 Title Card Required
 -------------------
 Symbolic Z-matrix:
 Charge =  0 Multiplicity = 1

 SCF Done:  E(RB3LYP) =  -1216.56711828     A.U. after   13 cycles
 SCF Done:  E(RB3LYP) =  -1216.58837220     A.U. after   13 cycles
 SCF Done:  E(RB3LYP) =  -1216.59898942     A.U. after   11 cycles
 SCF Done:  E(RB3LYP) =  -1216.60278019     A.U. after   11 cycles
 SCF Done:  E(RB3LYP) =  -1216.60184717     A.U. after   13 cycles
 SCF Done:  E(RB3LYP) =  -1216.60459795     A.U. after   11 cycles
 SCF Done:  E(RB3LYP) =  -1216.60602378     A.U. after   10 cycles
 SCF Done:  E(RB3LYP) =  -1216.60690186     A.U. after   10 cycles
 SCF Done:  E(RB3LYP) =  -1216.60731927     A.U. after   10 cycles
 SCF Done:  E(RB3LYP) =  -1216.60752847     A.U. after    9 cycles
 SCF Done:  E(RB3LYP) =  -1216.60859903     A.U. after    7 cycles
 SCF Done:  E(RB3LYP) =  -1216.60859864     A.U. after    8 cycles
 SCF Done:  E(RB3LYP) =  -1216.60859936     A.U. after    6 cycles
 SCF Done:  E(RB3LYP) =  -1216.60860081     A.U. after    7 cycles
 SCF Done:  E(RB3LYP) =  -1216.60860143     A.U. after    7 cycles
 SCF Done:  E(RB3LYP) =  -1216.60860169     A.U. after    7 cycles
 SCF Done:  E(RB3LYP) =  -1216.60860142     A.U. after    6 cycles
 SCF Done:  E(RB3LYP) =  -1216.60860053     A.U. after    7 cycles
 SCF Done:  E(RB3LYP) =  -1216.60860081     A.U. after    7 cycles
 Optimization completed.
    -- Stationary point found.
 Normal termination of Gaussian 16 at Mon Dec 12 14:14:40 2022.

 ----------------------------------------------------------------------
 #P Geom=AllCheck Guess=TCheck SCRF=Check GenChk RB3LYP/6-311+G(2d,p) F
 req
 ----------------------------------------------------------------------

 Structure from the checkpoint file:  "/data0/home/software/g16/scratch/Gau-1630737.chk"
 -------------------
 Title Card Required
 -------------------
 Charge =  0 Multiplicity = 1

                         Standard orientation:
 ---------------------------------------------------------------------
 Center     Atomic      Atomic             Coordinates (Angstroms)
 Number     Number       Type             X           Y           Z
 ---------------------------------------------------------------------
      1          6           0        4.996499    0.495104   -0.106224
      2          6           0        4.428458   -0.652551   -0.555153
      3          6           0        2.836781    0.855000   -0.344824
      4          7           0        3.984497    1.425469    0.018959
      5          1           0        6.019784    0.733111    0.126299
      6          1           0        4.861991   -1.609857   -0.786569
      7          1           0        1.873487    1.336110   -0.351801
      8          6           0        4.145284    2.807147    0.472255
      9          1           0        4.539009    2.810560    1.486888
     10          1           0        4.833207    3.327288   -0.191553
     11          1           0        3.174251    3.294561    0.452270
     12          7           0        3.078529   -0.405812   -0.706545
     13          6           0        2.062401   -1.398917   -1.094644
     14          1           0        2.485197   -1.977763   -1.914243
     15          1           0        1.207364   -0.844040   -1.479139
     16          6           0        1.665805   -2.321108    0.057257
     17          1           0        1.032129   -3.102309   -0.366319
     18          1           0        2.561083   -2.813346    0.444548
     19          6           0        0.936570   -1.626660    1.209050
     20          1           0        1.545892   -0.837527    1.651936
     21          1           0        0.753118   -2.359644    2.001817
     22          6           0       -0.419442   -1.045434    0.845656
     23          8           0       -1.150734   -1.697827    0.041074
     24          8           0       -0.761336    0.047128    1.388184
     25         15           0       -3.856579    0.574070   -0.315417
     26          8           0       -3.902477    1.414786   -1.542318
     27          8           0       -2.956052    1.151007    0.839400
     28          1           0       -2.060262    0.650911    1.036439
     29          8           0       -5.345662    0.526025    0.281185
     30          1           0       -5.412053    0.015451    1.102783
     31          8           0       -3.441647   -0.921764   -0.544473
     32          1           0       -2.457562   -1.202481   -0.273645
 ---------------------------------------------------------------------

 SCF Done:  E(RB3LYP) =  -1216.60860081     A.U. after    1 cycles

 The electronic state is 1-A.
 Alpha  occ. eigenvalues --  -77.17897 -19.15307 -19.12941 -19.12737 -19.10882
 Alpha  occ. eigenvalues --  -19.10800 -19.08498 -14.40945 -14.40625 -10.29288
 Alpha  occ. eigenvalues --  -10.27018 -10.22492 -10.22410 -10.22010 -10.21383
 Alpha  occ. eigenvalues --  -10.17482 -10.17206  -6.65660  -4.81967  -4.81949
 Alpha  occ. eigenvalues --   -4.81698  -1.09111  -1.08019  -1.07153  -1.02270
 Alpha  occ. eigenvalues --   -1.00879  -0.97748  -0.96532  -0.96210  -0.81864
 Alpha  occ. eigenvalues --   -0.79126  -0.75857  -0.71347  -0.65727  -0.63730
 Alpha  occ. eigenvalues --   -0.62466  -0.61249  -0.57145  -0.56666  -0.55342
 Alpha  occ. eigenvalues --   -0.52006  -0.51086  -0.49242  -0.48008  -0.47412
 Alpha  occ. eigenvalues --   -0.47144  -0.46503  -0.46064  -0.45482  -0.44661
 Alpha  occ. eigenvalues --   -0.44286  -0.44014  -0.42479  -0.41024  -0.40754
 Alpha  occ. eigenvalues --   -0.40723  -0.38098  -0.36960  -0.36195  -0.36021
 Alpha  occ. eigenvalues --   -0.35625  -0.35509  -0.35274  -0.30977  -0.30829
 Alpha  occ. eigenvalues --   -0.30518  -0.29342  -0.28902  -0.28238  -0.27317
 Alpha virt. eigenvalues --   -0.02597  -0.00247   0.00124   0.00425   0.01040
 Alpha virt. eigenvalues --    0.02182   0.02923   0.03135   0.03777   0.04162
 Alpha virt. eigenvalues --    0.04374   0.04489   0.05528   0.05889   0.06123

 Mulliken charges:
               1
     1  C   -0.147491
     2  C   -0.081500
     3  C   -0.021090
     4  N    0.089132
     5  H    0.176168
     6  H    0.181590
     7  H    0.222966
     8  C   -0.265419
     9  H    0.185902
    10  H    0.186151
    11  H    0.178579
    12  N    0.161255
    13  C   -0.289076
    14  H    0.178700
    15  H    0.182446
    16  C   -0.261439
    17  H    0.149100
    18  H    0.146465
    19  C   -0.307321
    20  H    0.158596
    21  H    0.172340
    22  C    0.619981
    23  O   -0.752498
    24  O   -0.754592
    25  P    1.591663
    26  O   -0.879428
    27  O   -0.828626
    28  H    0.545841
    29  O   -0.617933
    30  H    0.345785
    31  O   -0.846272
    32  H    0.580026
 Sum of Mulliken charges =  -0.00000

 Dipole moment (field-independent basis, Debye):
    X=             30.8293    Y=             -1.5966    Z=              3.2634  Tot=             31.0427
 Quadrupole moment (field-independent basis, Debye-Ang):
   XX=            -88.7107   YY=           -101.1513   ZZ=           -115.0428
   XY=             28.1247   XZ=            -25.1892   YZ=              5.1639

  Exact polarizability: 224.326  -1.705 221.697  12.140  15.975 177.822
 Approx polarizability: 222.892  -1.277 226.952  13.169  18.329 183.361

                      1                      2                      3
                      A                      A                      A
 Frequencies --     11.0582                20.2344                36.1499
 Red. masses --      6.7810                 5.4628                 9.6060
 Frc consts  --      0.0005                 0.0013                 0.0074
 IR Inten    --      9.7702                 2.4112                 6.3327

                      4                      5                      6
                      A                      A                      A
 Frequencies --     39.1150                49.3609                60.7494
 Red. masses --      7.5135                 6.9684                 4.7290
 Frc consts  --      0.0068                 0.0100                 0.0103
 IR Inten    --      4.6127                14.9989                 5.2718

                      7                      8                      9
                      A                      A                      A
 Frequencies --     77.4916                90.7809               108.6812
 Red. masses --      3.4018                 1.2431                 4.5673
 Frc consts  --      0.0120                 0.0060                 0.0318
 IR Inten    --      1.1781                 0.5159                 4.1924

                     10                     11                     12
                      A                      A                      A
 Frequencies --    137.7452               157.1835               199.0854
 Red. masses --      5.7193                 4.8558                 4.5038
 Frc consts  --      0.0639                 0.0707                 0.1052
 IR Inten    --      0.9965                 6.4713                72.4397

                     13                     14                     15
                      A                      A                      A
 Frequencies --    215.2379               263.3823               267.5929
 Red. masses --      3.6525                 3.1916                 2.2731
 Frc consts  --      0.0997                 0.1304                 0.0959
 IR Inten    --     57.2997                25.3179                98.5655

                     16                     17                     18
                      A                      A                      A
 Frequencies --    284.0560               353.6810               374.6579
 Red. masses --      2.6718                 2.8605                 1.8829
 Frc consts  --      0.1270                 0.2108                 0.1557
 IR Inten    --     22.6092                11.9572               131.8110

                     19                     20                     21
                      A                      A                      A
 Frequencies --    383.8355               422.0383               430.4965
 Red. masses --      5.4701                 2.3116                 5.1734
 Frc consts  --      0.4748                 0.2426                 0.5649
 IR Inten    --    174.9128                 4.1198                23.8583

                     22                     23                     24
                      A                      A                      A
 Frequencies --    439.9498               442.2909               509.9248
 Red. masses --      3.3965                 9.6643                 9.1976
 Frc consts  --      0.3873                 1.1139                 1.4091
 IR Inten    --     17.5974               118.5504                 0.6528

                     25                     26                     27
                      A                      A                      A
 Frequencies --    521.0772               596.1007               614.3086
 Red. masses --      4.3855                 3.2752                 3.9653
 Frc consts  --      0.7016                 0.6857                 0.8817
 IR Inten    --     24.3121                 5.5615               112.0391

                     28                     29                     30
                      A                      A                      A
 Frequencies --    627.1428               653.0143               683.8098
 Red. masses --      2.9726                 2.6474                 3.4336
 Frc consts  --      0.6888                 0.6652                 0.9459
 IR Inten    --     25.0361                26.0982                16.4177

                     31                     32                     33
                      A                      A                      A
 Frequencies --    720.7923               744.2953               822.0836
 Red. masses --      3.7826                 1.2351                11.0286
 Frc consts  --      1.1579                 0.4031                 4.3914
 IR Inten    --     17.6253                67.8554               288.1310

                     34                     35                     36
                      A                      A                      A
 Frequencies --    825.0974               858.6412               869.2557
 Red. masses --      2.2964                 1.4704                 1.4586
 Frc consts  --      0.9211                 0.6387                 0.6494
 IR Inten    --     57.9959                52.2841                 6.0522

                     37                     38                     39
                      A                      A                      A
 Frequencies --    880.1588               907.9908               925.5785
 Red. masses --      2.8814                 5.2071                 4.0103
 Frc consts  --      1.3151                 2.5293                 2.0242
 IR Inten    --      9.0864               183.0987               110.9749

                     40                     41                     42
                      A                      A                      A
 Frequencies --    957.2472               975.8729              1000.1380
 Red. masses --      8.0436                 1.0974                 2.1436
 Frc consts  --      4.3426                 0.6157                 1.2633
 IR Inten    --    353.1852                83.9880                56.6149

                     43                     44                     45
                      A                      A                      A
 Frequencies --   1025.5936              1034.2941              1037.5866
 Red. masses --      1.0948                 2.8896                 2.9493
 Frc consts  --      0.6785                 1.8213                 1.8708
 IR Inten    --    219.6219                16.7909                 2.4362

                     46                     47                     48
                      A                      A                      A
 Frequencies --   1063.0529              1064.9463              1094.5661
 Red. masses --      1.2798                 2.1476                 2.7892
 Frc consts  --      0.8521                 1.4350                 1.9688
 IR Inten    --    205.2327                28.9329                32.6142

                     49                     50                     51
                      A                      A                      A
 Frequencies --   1104.0876              1117.3049              1162.0214
 Red. masses --      1.3762                 1.3307                 1.3200
 Frc consts  --      0.9884                 0.9787                 1.0502
 IR Inten    --      8.3713                10.5074                 0.3378

                     52                     53                     54
                      A                      A                      A
 Frequencies --   1170.2950              1193.6156              1200.7960
 Red. masses --      1.7369                 8.2692                 1.3107
 Frc consts  --      1.4016                 6.9414                 1.1135
 IR Inten    --    184.9722               798.3047                10.0571

                     55                     56                     57
                      A                      A                      A
 Frequencies --   1202.9273              1287.3684              1312.1930
 Red. masses --      1.2939                 1.2951                 1.3515
 Frc consts  --      1.1031                 1.2646                 1.3711
 IR Inten    --     11.8970                 3.0456                 0.1654

                     58                     59                     60
                      A                      A                      A
 Frequencies --   1332.4276              1344.5370              1352.6261
 Red. masses --      1.6641                 1.2492                 4.5252
 Frc consts  --      1.7406                 1.3305                 4.8781
 IR Inten    --    123.8910               154.1497                13.7199

                     61                     62                     63
                      A                      A                      A
 Frequencies --   1379.0120              1394.4174              1411.7027
 Red. masses --      1.7570                 1.4085                 2.5287
 Frc consts  --      1.9686                 1.6136                 2.9692
 IR Inten    --    153.8446                90.1170                44.8879

                     64                     65                     66
                      A                      A                      A
 Frequencies --   1417.9673              1434.1203              1439.9666
 Red. masses --      2.7315                 2.4407                 2.5250
 Frc consts  --      3.2358                 2.9576                 3.0847
 IR Inten    --    516.5703              1025.8592                32.6841

                     67                     68                     69
                      A                      A                      A
 Frequencies --   1458.5181              1459.9196              1463.9216
 Red. masses --      1.1064                 1.2033                 1.1561
 Frc consts  --      1.3867                 1.5111                 1.4597
 IR Inten    --     14.0906                51.9652                11.4367

                     70                     71                     72
                      A                      A                      A
 Frequencies --   1470.6728              1484.0277              1493.8798
 Red. masses --      1.0362                 1.2874                 1.1074
 Frc consts  --      1.3205                 1.6705                 1.4561
 IR Inten    --     23.1889               257.5860                16.9314

                     73                     74                     75
                      A                      A                      A
 Frequencies --   1497.1709              1592.4397              1606.8370
 Red. masses --      1.1551                 3.7466                 3.8315
 Frc consts  --      1.5255                 5.5977                 5.8286
 IR Inten    --     19.0418                80.1976                34.0697

                     76                     77                     78
                      A                      A                      A
 Frequencies --   2072.5546              2282.3475              3038.1987
 Red. masses --      1.2059                 1.1167                 1.0660
 Frc consts  --      3.0518                 3.4272                 5.7977
 IR Inten    --   2813.0043              6211.5333                15.8079

                     79                     80                     81
                      A                      A                      A
 Frequencies --   3054.1126              3074.8793              3081.9186
 Red. masses --      1.0625                 1.0314                 1.0834
 Frc consts  --      5.8389                 5.7458                 6.0631
 IR Inten    --     25.2540                20.7061                 5.1321

                     82                     83                     84
                      A                      A                      A
 Frequencies --   3089.1924              3099.6623              3136.3442
 Red. masses --      1.0786                 1.0957                 1.1082
 Frc consts  --      6.0644                 6.2025                 6.4230
 IR Inten    --      6.6910                57.0363                 9.6416

                     85                     86                     87
                      A                      A                      A
 Frequencies --   3151.3496              3168.6646              3280.9829
 Red. masses --      1.1074                 1.1072                 1.0941
 Frc consts  --      6.4794                 6.5500                 6.9394
 IR Inten    --      4.8723                 2.5972                22.2842

                     88                     89                     90
                      A                      A                      A
 Frequencies --   3288.9466              3297.0729              3763.7828
 Red. masses --      1.1017                 1.1108                 1.0658
 Frc consts  --      7.0215                 7.1144                 8.8957
 IR Inten    --     58.2836                 2.6543               205.4259

 - Thermochemistry -
 -------------------
 Temperature   298.150 Kelvin.  Pressure   1.00000 Atm.
 Atom     1 has atomic number  6 and mass  12.00000

 Molecular mass:   266.06677 amu.
 Principal axes and moments of inertia in atomic units:
                           1         2         3
     Eigenvalues --  2254.60397********************
           X            0.99996   0.00884  -0.00212
           Y           -0.00880   0.99978   0.01900
           Z            0.00228  -0.01898   0.99982
 This molecule is an asymmetric top.
 Rotational symmetry number  1.
 Warning -- assumption of classical behavior for rotation
           may cause significant error
 Rotational temperatures (Kelvin)      0.03842     0.00771     0.00702
 Rotational constants (GHZ):           0.80047     0.16056     0.14638
 Zero-point vibrational energy     649226.6 (Joules/Mol)
                                  155.16887 (Kcal/Mol)
 Warning -- explicit consideration of  27 degrees of freedom as
           vibrations may cause significant error
 Vibrational temperatures:     15.91    29.11    52.01    56.28    71.02
          (Kelvin)             87.40   111.49   130.61   156.37   198.18
                              226.15   286.44   309.68   378.95   385.01
                              408.69   508.87   539.05   552.25   607.22
                              619.39   632.99   636.36   733.67   749.71
                              857.66   883.85   902.32   939.54   983.85
                             1037.06  1070.87  1182.79  1187.13  1235.39
                             1250.67  1266.35  1306.40  1331.70  1377.27
                             1404.06  1438.98  1475.60  1488.12  1492.86
                             1529.50  1532.22  1574.84  1588.54  1607.55
                             1671.89  1683.79  1717.35  1727.68  1730.74
                             1852.24  1887.95  1917.07  1934.49  1946.13
                             1984.09  2006.26  2031.13  2040.14  2063.38
                             2071.79  2098.48  2100.50  2106.26  2115.97
                             2135.18  2149.36  2154.09  2291.17  2311.88
                             2981.94  3283.79  4371.29  4394.19  4424.07
                             4434.19  4444.66  4459.72  4512.50  4534.09
                             4559.00  4720.60  4732.06  4743.75  5415.24

 Zero-point correction=                           0.247277 (Hartree/Particle)
 Thermal correction to Energy=                    0.265786
 Thermal correction to Enthalpy=                  0.266730
 Thermal correction to Gibbs Free Energy=         0.195775
 Sum of electronic and zero-point Energies=          -1216.361323
 Sum of electronic and thermal Energies=             -1216.342815
 Sum of electronic and thermal Enthalpies=           -1216.341871
 Sum of electronic and thermal Free Energies=        -1216.412826

                     E (Thermal)             CV                S
                      KCal/Mol        Cal/Mol-Kelvin    Cal/Mol-Kelvin
 Total                  166.783             65.859            149.337
 Electronic               0.000              0.000              0.000
 Translational            0.889              2.981             42.635
 Rotational               0.889              2.981             34.101
 Vibrational            165.006             59.898             72.600
 Vibration     1          0.593              1.987              7.811
 Vibration     2          0.593              1.986              6.611
 Vibration     3          0.594              1.982              5.460
 Vibration     4          0.594              1.981              5.303
 Vibration     5          0.595              1.978              4.843
 Vibration     6          0.597              1.973              4.433
 Vibration     7          0.599              1.964              3.953
 Vibration     8          0.602              1.956              3.643
 Vibration     9          0.606              1.942              3.292
 Vibration    10          0.614              1.916              2.835
 Vibration    11          0.621              1.895              2.583
 Vibration    12          0.637              1.841              2.142
 Vibration    13          0.645              1.818              1.999
 Vibration    14          0.670              1.740              1.639
 Vibration    15          0.673              1.733              1.612
 Vibration    16          0.682              1.703              1.509
 Vibration    17          0.730              1.568              1.150
 Vibration    18          0.746              1.524              1.061
 Vibration    19          0.753              1.505              1.024
 Vibration    20          0.784              1.422              0.885
 Vibration    21          0.792              1.404              0.857
 Vibration    22          0.800              1.383              0.827
 Vibration    23          0.802              1.378              0.819
 Vibration    24          0.865              1.228              0.634
 Vibration    25          0.876              1.203              0.607
 Vibration    26          0.954              1.040              0.456
 Vibration    27          0.974              1.002              0.426

                           ! Non-Optimized Parameters !
 Normal termination of Gaussian 16 at Mon Dec 12 14:47:07 2022.
