 Gaussian 16, Revision A.03,
 Gaussian 16:  ES64L-G16RevA.03 25-Dec-2016

 -------------------------------------------------------
 #p B3LYP/6-311+G(2d,p) opt freq scrf(smd,solvent=water)
 -------------------------------------------------------

 -------------------
 Title Card Required
 -------------------
 Symbolic Z-matrix:
 Charge =  0 Multiplicity = 1

 SCF Done:  E(RB3LYP) =  -1024.32903976     A.U. after   13 cycles
 SCF Done:  E(RB3LYP) =  -1024.34176324     A.U. after   12 cycles
 SCF Done:  E(RB3LYP) =  -1024.33907931     A.U. after   13 cycles
 SCF Done:  E(RB3LYP) =  -1024.34343926     A.U. after   11 cycles
 SCF Done:  E(RB3LYP) =  -1024.34446710     A.U. after   11 cycles
 SCF Done:  E(RB3LYP) =  -1024.34395694     A.U. after   11 cycles
 SCF Done:  E(RB3LYP) =  -1024.34547785     A.U. after   11 cycles
 SCF Done:  E(RB3LYP) =  -1024.34381029     A.U. after   13 cycles
 SCF Done:  E(RB3LYP) =  -1024.34598637     A.U. after   10 cycles
 SCF Done:  E(RB3LYP) =  -1024.34610805     A.U. after   11 cycles
 SCF Done:  E(RB3LYP) =  -1024.35451996     A.U. after   11 cycles
 SCF Done:  E(RB3LYP) =  -1024.35458525     A.U. after   10 cycles
 SCF Done:  E(RB3LYP) =  -1024.35461306     A.U. after   10 cycles
 SCF Done:  E(RB3LYP) =  -1024.35461589     A.U. after    9 cycles
 SCF Done:  E(RB3LYP) =  -1024.35460893     A.U. after    8 cycles
 SCF Done:  E(RB3LYP) =  -1024.35462196     A.U. after    9 cycles
 SCF Done:  E(RB3LYP) =  -1024.35462284     A.U. after    7 cycles
 SCF Done:  E(RB3LYP) =  -1024.35462306     A.U. after    7 cycles
 SCF Done:  E(RB3LYP) =  -1024.35462311     A.U. after    7 cycles
 Optimization completed.
    -- Stationary point found.
 Normal termination of Gaussian 16 at Sun Dec 11 11:14:21 2022.

 ----------------------------------------------------------------------
 #P Geom=AllCheck Guess=TCheck SCRF=Check GenChk RB3LYP/6-311+G(2d,p) F
 req
 ----------------------------------------------------------------------

 Structure from the checkpoint file:  "/data0/home/software/g16/scratch/Gau-1469903.chk"
 -------------------
 Title Card Required
 -------------------
 Charge =  0 Multiplicity = 1

                         Standard orientation:
 ---------------------------------------------------------------------
 Center     Atomic      Atomic             Coordinates (Angstroms)
 Number     Number       Type             X           Y           Z
 ---------------------------------------------------------------------
      1          6           0        2.851900    0.673823    0.064687
      2          6           0        1.671924   -0.042406   -0.177155
      3          6           0        1.667535   -1.432099   -0.253968
      4          6           0        2.886274   -2.068248   -0.078872
      5          6           0        4.069471   -1.346436    0.164095
      6          6           0        4.075891    0.037530    0.240577
      7          1           0        0.755815   -1.983725   -0.440481
      8          1           0        2.930749   -3.148869   -0.130013
      9          1           0        4.998458   -1.886974    0.294928
     10          1           0        4.982866    0.597134    0.427697
     11          1           0        3.098590    2.806894    0.225627
     12          6           0        1.174867    2.104257   -0.143902
     13          1           0        0.622319    3.028030   -0.186226
     14          7           0        2.486419    2.014407    0.075408
     15          7           0        0.653831    0.896388   -0.300118
     16         15           0       -2.931215   -0.126795    0.124473
     17          8           0       -2.567173   -0.174858    1.575591
     18          8           0       -4.372331    0.598440   -0.097097
     19          1           0       -4.282701    1.558552   -0.187988
     20          8           0       -1.943526    0.465603   -0.857665
     21          1           0       -0.365456    0.704642   -0.483355
     22          8           0       -3.324988   -1.637236   -0.302288
     23          1           0       -3.477205   -1.723439   -1.255407
 ---------------------------------------------------------------------

 SCF Done:  E(RB3LYP) =  -1024.35462311     A.U. after    1 cycles

 The electronic state is 1-A.
 Alpha  occ. eigenvalues --  -77.16163 -19.14471 -19.14209 -19.08496 -19.07665
 Alpha  occ. eigenvalues --  -14.40121 -14.38715 -10.28532 -10.23531 -10.23290
 Alpha  occ. eigenvalues --  -10.19206 -10.19121 -10.18503 -10.18428  -6.63959
 Alpha  occ. eigenvalues --   -4.80311  -4.80198  -4.79985  -1.07669  -1.07336
 Alpha  occ. eigenvalues --   -1.01989  -0.97488  -0.94655  -0.93749  -0.87370
 Alpha  occ. eigenvalues --   -0.77324  -0.76833  -0.68190  -0.66020  -0.63955
 Alpha  occ. eigenvalues --   -0.61190  -0.57461  -0.54132  -0.53770  -0.53241
 Alpha  occ. eigenvalues --   -0.50872  -0.48844  -0.47412  -0.46067  -0.45496
 Alpha  occ. eigenvalues --   -0.44622  -0.43851  -0.41418  -0.39050  -0.38442
 Alpha  occ. eigenvalues --   -0.37161  -0.36959  -0.36588  -0.35738  -0.35280
 Alpha  occ. eigenvalues --   -0.33304  -0.31103  -0.29451  -0.28016  -0.26230
 Alpha  occ. eigenvalues --   -0.25971
 Alpha virt. eigenvalues --   -0.05262  -0.01008  -0.00612  -0.00220   0.01115
 Alpha virt. eigenvalues --    0.01842   0.03161   0.03469   0.03755   0.04203
 Alpha virt. eigenvalues --    0.05294   0.05763   0.05881   0.07532   0.07937

 Mulliken charges:
               1
     1  C    0.654877
     2  C    0.560612
     3  C   -0.476524
     4  C   -0.218506
     5  C   -0.076657
     6  C   -0.727197
     7  H    0.157339
     8  H    0.133528
     9  H    0.133973
    10  H    0.151107
    11  H    0.380747
    12  C    0.286971
    13  H    0.213317
    14  N   -0.331555
    15  N   -0.430933
    16  P    1.528260
    17  O   -0.912320
    18  O   -0.661616
    19  H    0.349569
    20  O   -0.934572
    21  H    0.498258
    22  O   -0.616559
    23  H    0.337880
 Sum of Mulliken charges =  -0.00000

 Dipole moment (field-independent basis, Debye):
    X=             16.1076    Y=              7.6933    Z=             -4.6468  Tot=             18.4455
 Quadrupole moment (field-independent basis, Debye-Ang):
   XX=            -82.9110   YY=            -58.4170   ZZ=           -100.1199
   XY=              4.9781   XZ=             17.6732   YZ=              6.0371

  Exact polarizability: 209.767 -16.337 221.262  13.088   1.912 128.490
 Approx polarizability: 224.088 -13.395 239.015  15.560   2.553 135.663

                      1                      2                      3
                      A                      A                      A
 Frequencies --     26.3946                37.7853                44.7029
 Red. masses --      7.2868                 7.1998                 7.0749
 Frc consts  --      0.0030                 0.0061                 0.0083
 IR Inten    --      7.1654                14.3701                 5.0346

                      4                      5                      6
                      A                      A                      A
 Frequencies --     64.4203                78.9906               138.0838
 Red. masses --      7.6852                 6.4144                 8.0847
 Frc consts  --      0.0188                 0.0236                 0.0908
 IR Inten    --      8.7392                17.3118                35.8563

                      7                      8                      9
                      A                      A                      A
 Frequencies --    175.7296               219.0764               266.2732
 Red. masses --      1.1484                 4.1081                 3.7875
 Frc consts  --      0.0209                 0.1162                 0.1582
 IR Inten    --    148.9979                24.7967                28.8767

                     10                     11                     12
                      A                      A                      A
 Frequencies --    272.3854               358.9631               381.8329
 Red. masses --      1.7655                 3.6180                 2.8628
 Frc consts  --      0.0772                 0.2747                 0.2459
 IR Inten    --    197.9806                77.1407                38.1880

                     13                     14                     15
                      A                      A                      A
 Frequencies --    417.4941               428.7177               459.8475
 Red. masses --      3.9467                 2.8702                 9.9291
 Frc consts  --      0.4053                 0.3108                 1.2371
 IR Inten    --     11.4975                22.5212               127.5838

                     16                     17                     18
                      A                      A                      A
 Frequencies --    466.5922               481.7164               549.0223
 Red. masses --      8.1670                12.4369                 6.7570
 Frc consts  --      1.0476                 1.7004                 1.2000
 IR Inten    --     73.7209               143.5146                 5.7993

                     19                     20                     21
                      A                      A                      A
 Frequencies --    559.8744               586.4816               631.7090
 Red. masses --      1.7164                 3.4631                 6.4201
 Frc consts  --      0.3170                 0.7018                 1.5095
 IR Inten    --    109.2906                 1.9894                28.6181

                     22                     23                     24
                      A                      A                      A
 Frequencies --    640.6715               757.4999               773.3855
 Red. masses --      1.7238                 1.2742                 4.1684
 Frc consts  --      0.4169                 0.4308                 1.4690
 IR Inten    --     34.2884               153.4838                 1.1182

                     25                     26                     27
                      A                      A                      A
 Frequencies --    785.4267               788.4031               809.3998
 Red. masses --     14.6637                 5.1284                13.6053
 Frc consts  --      5.3297                 1.8781                 5.2515
 IR Inten    --    278.1482                 2.6432               413.9191

                     28                     29                     30
                      A                      A                      A
 Frequencies --    867.4552               890.1886               895.0662
 Red. masses --      1.4805                 4.8448                 1.4190
 Frc consts  --      0.6564                 2.2620                 0.6698
 IR Inten    --      0.1493                13.4049                38.4585

                     31                     32                     33
                      A                      A                      A
 Frequencies --    944.0096               957.3396               999.9563
 Red. masses --      4.8974                 1.3592                 1.3095
 Frc consts  --      2.5714                 0.7340                 0.7715
 IR Inten    --     89.6144                 2.7507                 0.0073

                     34                     35                     36
                      A                      A                      A
 Frequencies --   1013.7869              1025.0846              1033.3781
 Red. masses --      1.0975                 2.1441                 2.5184
 Frc consts  --      0.6646                 1.3275                 1.5845
 IR Inten    --    123.8765                24.7518               459.1958

                     37                     38                     39
                      A                      A                      A
 Frequencies --   1048.8126              1077.0055              1127.3913
 Red. masses --      1.7156                 1.2702                 1.5896
 Frc consts  --      1.1119                 0.8681                 1.1904
 IR Inten    --     86.1053               313.7036                13.4759

                     40                     41                     42
                      A                      A                      A
 Frequencies --   1153.7093              1166.9746              1181.3593
 Red. masses --      1.3023                 1.1507                 5.0898
 Frc consts  --      1.0213                 0.9233                 4.1852
 IR Inten    --     36.7496                 3.3414               601.1868

                     43                     44                     45
                      A                      A                      A
 Frequencies --   1191.5230              1252.0645              1287.1322
 Red. masses --      1.9750                 2.3928                 3.7376
 Frc consts  --      1.6520                 2.2101                 3.6482
 IR Inten    --     96.6290                32.8291                16.9564

                     46                     47                     48
                      A                      A                      A
 Frequencies --   1301.0854              1377.4809              1417.8675
 Red. masses --      1.5233                 6.2394                 1.5930
 Frc consts  --      1.5193                 6.9753                 1.8868
 IR Inten    --      5.6223                 1.9895                75.6947

                     49                     50                     51
                      A                      A                      A
 Frequencies --   1475.0621              1526.1401              1539.7680
 Red. masses --      2.4864                 2.6631                 2.2322
 Frc consts  --      3.1874                 3.6545                 3.1181
 IR Inten    --     76.9542                 5.1757                15.5101

                     52                     53                     54
                      A                      A                      A
 Frequencies --   1562.5577              1651.5686              1662.2761
 Red. masses --      3.7621                 4.9470                 6.2885
 Frc consts  --      5.4119                 7.9503                10.2377
 IR Inten    --     46.5279                40.2064                 1.6937

                     55                     56                     57
                      A                      A                      A
 Frequencies --   2822.8551              3183.7960              3194.6314
 Red. masses --      1.1190                 1.0881                 1.0910
 Frc consts  --      5.2537                 6.4983                 6.5604
 IR Inten    --   3488.4171                 3.0420                 7.7864

                     58                     59                     60
                      A                      A                      A
 Frequencies --   3206.6423              3210.0243              3292.1369
 Red. masses --      1.0951                 1.0961                 1.1032
 Frc consts  --      6.6343                 6.6546                 7.0447
 IR Inten    --      1.7909                 1.8282                55.2327

                     61                     62                     63
                      A                      A                      A
 Frequencies --   3595.8602              3771.9595              3779.9954
 Red. masses --      1.0838                 1.0655                 1.0660
 Frc consts  --      8.2563                 8.9314                 8.9742
 IR Inten    --    320.7011               195.2316               190.3312

 - Thermochemistry -
 -------------------
 Temperature   298.150 Kelvin.  Pressure   1.00000 Atm.
 Atom     1 has atomic number  6 and mass  12.00000

 Molecular mass:   216.03000 amu.
 Principal axes and moments of inertia in atomic units:
                           1         2         3
     Eigenvalues --  1350.768486591.378787515.11575
           X            0.99997  -0.00541   0.00517
           Y            0.00536   0.99994   0.00980
           Z           -0.00522  -0.00977   0.99994
 This molecule is an asymmetric top.
 Rotational symmetry number  1.
 Warning -- assumption of classical behavior for rotation
           may cause significant error
 Rotational temperatures (Kelvin)      0.06412     0.01314     0.01153
 Rotational constants (GHZ):           1.33608     0.27380     0.24015
 Zero-point vibrational energy     441929.4 (Joules/Mol)
                                  105.62366 (Kcal/Mol)
 Warning -- explicit consideration of  20 degrees of freedom as
           vibrations may cause significant error
 Vibrational temperatures:     37.98    54.36    64.32    92.69   113.65
          (Kelvin)            198.67   252.84   315.20   383.11   391.90
                              516.47   549.37   600.68   616.83   661.62
                              671.32   693.08   789.92   805.53   843.82
                              908.89   921.78  1089.87  1112.73  1130.05
                             1134.34  1164.55  1248.07  1280.78  1287.80
                             1358.22  1377.40  1438.71  1458.61  1474.87
                             1486.80  1509.01  1549.57  1622.06  1659.93
                             1679.02  1699.71  1714.34  1801.44  1851.90
                             1871.97  1981.89  2040.00  2122.29  2195.78
                             2215.38  2248.17  2376.24  2391.64  4061.46
                             4580.77  4596.36  4613.64  4618.51  4736.65
                             5173.64  5427.01  5438.57

 Zero-point correction=                           0.168322 (Hartree/Particle)
 Thermal correction to Energy=                    0.181910
 Thermal correction to Enthalpy=                  0.182854
 Thermal correction to Gibbs Free Energy=         0.125434
 Sum of electronic and zero-point Energies=          -1024.186301
 Sum of electronic and thermal Energies=             -1024.172713
 Sum of electronic and thermal Enthalpies=           -1024.171769
 Sum of electronic and thermal Free Energies=        -1024.229189

                     E (Thermal)             CV                S
                      KCal/Mol        Cal/Mol-Kelvin    Cal/Mol-Kelvin
 Total                  114.150             50.088            120.851
 Electronic               0.000              0.000              0.000
 Translational            0.889              2.981             42.014
 Rotational               0.889              2.981             32.570
 Vibrational            112.373             44.126             46.267
 Vibration     1          0.593              1.985              6.083
 Vibration     2          0.594              1.982              5.372
 Vibration     3          0.595              1.980              5.039
 Vibration     4          0.597              1.971              4.317
 Vibration     5          0.600              1.963              3.916
 Vibration     6          0.614              1.915              2.830
 Vibration     7          0.628              1.872              2.373
 Vibration     8          0.647              1.812              1.967
 Vibration     9          0.672              1.735              1.620
 Vibration    10          0.675              1.724              1.581
 Vibration    11          0.734              1.557              1.127
 Vibration    12          0.751              1.509              1.032
 Vibration    13          0.781              1.432              0.901
 Vibration    14          0.790              1.408              0.863
 Vibration    15          0.818              1.339              0.767
 Vibration    16          0.824              1.324              0.747
 Vibration    17          0.838              1.291              0.705
 Vibration    18          0.904              1.142              0.546
 Vibration    19          0.915              1.118              0.524
 Vibration    20          0.944              1.061              0.473

                           ! Non-Optimized Parameters !
 Normal termination of Gaussian 16 at Sun Dec 11 11:24:06 2022.
