 Gaussian 16, Revision A.03,
 Gaussian 16:  ES64L-G16RevA.03 25-Dec-2016

 ------------------------------------
 #p 6-311+g(2d,p) nosymm em=gd3 m062x
 ------------------------------------

 -------------------
 Title Card Required
 -------------------
 Symbolic Z-matrix:
 Charge =  0 Multiplicity = 1

                          Input orientation:
 ---------------------------------------------------------------------
 Center     Atomic      Atomic             Coordinates (Angstroms)
 Number     Number       Type             X           Y           Z
 ---------------------------------------------------------------------
      1         15           0        4.108562   10.081966   14.648549
      2          8           0        4.653213    8.746464   14.443596
      3          8           0        4.304320   10.644847   16.107510
      4          1           0        3.808407   11.584592   16.204143
      5          8           0        4.830808   11.209544   13.704795
      6          1           0        5.812062   11.234315   13.919887
      7          8           0        2.613501   10.254490   14.193563
      8          1           0        2.252144   11.247021   14.452842
 ---------------------------------------------------------------------

 SCF Done:  E(RM062X) =  -644.135614650     A.U. after   12 cycles

 Alpha  occ. eigenvalues --  -78.16980 -19.69843 -19.69769 -19.66690 -19.58671
 Alpha  occ. eigenvalues --   -6.97768  -5.09696  -5.09642  -5.09448  -1.24564
 Alpha  occ. eigenvalues --   -1.17745  -1.15677  -1.09279  -0.72459  -0.66520
 Alpha  occ. eigenvalues --   -0.64221  -0.57627  -0.54761  -0.50868  -0.49451
 Alpha  occ. eigenvalues --   -0.46540  -0.46137  -0.43490  -0.38988  -0.37643
 Alpha virt. eigenvalues --   -0.04536   0.01443   0.03192   0.04332   0.07582
 Alpha virt. eigenvalues --    0.07903   0.12275   0.14626   0.15929   0.16848
 Alpha virt. eigenvalues --    0.17194   0.17786   0.18400   0.20890   0.21323

 Mulliken charges:
               1
     1  P    1.257349
     2  O   -0.604694
     3  O   -0.521247
     4  H    0.306355
     5  O   -0.569345
     6  H    0.314270
     7  O   -0.487191
     8  H    0.304503
 Sum of Mulliken charges =  -0.00000

 Dipole moment (field-independent basis, Debye):
    X=             -1.2209    Y=              5.5885    Z=              1.6594  Tot=              5.9561
 Quadrupole moment (field-independent basis, Debye-Ang):
   XX=            -39.9757   YY=             77.8194   ZZ=             10.9055
   XY=              9.3514   XZ=            -13.5751   YZ=            101.4801

 Normal termination of Gaussian 16 at Mon Jul 10 19:11:01 2023.
