 Gaussian 16, Revision A.03,
 Gaussian 16:  ES64L-G16RevA.03 25-Dec-2016

 ------------------------------------
 #p 6-311+g(2d,p) nosymm em=gd3 m062x
 ------------------------------------

 -------------------
 Title Card Required
 -------------------
 Symbolic Z-matrix:
 Charge =  0 Multiplicity = 1

                          Input orientation:
 ---------------------------------------------------------------------
 Center     Atomic      Atomic             Coordinates (Angstroms)
 Number     Number       Type             X           Y           Z
 ---------------------------------------------------------------------
      1          6           0        4.363933   12.693059   10.941306
      2          1           0        4.115753   12.155399   10.013654
      3          1           0        5.254536   13.312712   10.767014
      4          1           0        4.634740   11.914049   11.701212
      5          6           0        2.834748   14.523762   10.384041
      6          1           0        2.584503   14.037724    9.426204
      7          1           0        1.954724   15.113960   10.699222
      8          1           0        3.662426   15.229358   10.202565
      9          6           0        2.042072   12.589536   11.660985
     10          1           0        1.209412   13.089316   12.196094
     11          1           0        1.671422   12.158998   10.723199
     12          1           0        2.335110   11.751606   12.338946
     13          6           0        3.625512   14.224620   12.709333
     14          1           0        4.525062   14.835524   12.493978
     15          1           0        3.950674   13.428699   13.438209
     16          6           0        2.522274   15.091451   13.334523
     17          1           0        1.513488   14.778210   12.989575
     18          1           0        2.639091   16.148773   13.038290
     19          6           0        2.548754   14.962947   14.859054
     20          1           0        1.696746   15.491510   15.320014
     21          1           0        3.460591   15.406291   15.294244
     22          7           0        3.201397   13.513144   11.431340
     23          6           0        2.462764   13.476101   15.262110
     24          8           0        1.779757   12.744945   14.506368
     25          8           0        3.117492   13.115089   16.243656
 ---------------------------------------------------------------------

 SCF Done:  E(RM062X) =  -480.854131366     A.U. after   14 cycles

 Alpha  occ. eigenvalues --  -19.49756 -19.49212 -14.92215 -10.64407 -10.64371
 Alpha  occ. eigenvalues --  -10.62106 -10.61240 -10.56030 -10.55240 -10.50528
 Alpha  occ. eigenvalues --   -1.16713  -1.09080  -0.99287  -0.90817  -0.88756
 Alpha  occ. eigenvalues --   -0.87041  -0.82161  -0.74937  -0.69293  -0.63850
 Alpha  occ. eigenvalues --   -0.63402  -0.61906  -0.56131  -0.54891  -0.53542
 Alpha  occ. eigenvalues --   -0.51817  -0.51294  -0.50863  -0.49404  -0.49116
 Alpha  occ. eigenvalues --   -0.47514  -0.46425  -0.43690  -0.43088  -0.41366
 Alpha  occ. eigenvalues --   -0.39528  -0.37341  -0.25399  -0.25201  -0.24089
 Alpha virt. eigenvalues --   -0.02783  -0.00521  -0.00370   0.01192   0.01440
 Alpha virt. eigenvalues --    0.03168   0.03285   0.03793   0.04040   0.05024
 Alpha virt. eigenvalues --    0.06998   0.07274   0.07788   0.08428   0.08875

 Mulliken charges:
               1
     1  C   -0.367223
     2  H    0.202412
     3  H    0.204045
     4  H    0.231066
     5  C   -0.324526
     6  H    0.202782
     7  H    0.219488
     8  H    0.211326
     9  C   -0.392717
    10  H    0.235173
    11  H    0.195110
    12  H    0.259885
    13  C   -0.201268
    14  H    0.203394
    15  H    0.243773
    16  C   -0.207298
    17  H    0.158315
    18  H    0.158755
    19  C   -0.366488
    20  H    0.165884
    21  H    0.173983
    22  N   -0.274156
    23  C    0.235859
    24  O   -0.628392
    25  O   -0.539181
 Sum of Mulliken charges =  -0.00000

 Dipole moment (field-independent basis, Debye):
    X=              2.7102    Y=              3.0920    Z=            -14.8395  Tot=             15.3986
 Quadrupole moment (field-independent basis, Debye-Ang):
   XX=            -45.3859   YY=             22.3276   ZZ=           -463.2330
   XY=             42.4614   XZ=             -9.5100   YZ=           -152.1016

 Normal termination of Gaussian 16 at Mon Jul 10 19:12:27 2023.
