 Gaussian 16, Revision A.03,
 Gaussian 16:  ES64L-G16RevA.03 25-Dec-2016

 ----------------------------------------
 #p M052X/6-31G* scrf=(smd,solvent=water)
 ----------------------------------------

 -------------------
 Title Card Required
 -------------------
 Symbolic Z-matrix:
 Charge =  0 Multiplicity = 1

                         Standard orientation:
 ---------------------------------------------------------------------
 Center     Atomic      Atomic             Coordinates (Angstroms)
 Number     Number       Type             X           Y           Z
 ---------------------------------------------------------------------
      1          6           0        1.143264    0.718080   -0.000211
      2          6           0        1.194173   -0.669578   -0.000121
      3          6           0       -0.000012   -1.379420    0.000092
      4          6           0       -1.194184   -0.669560    0.000210
      5          6           0       -1.143252    0.718098    0.000118
      6          7           0        0.000011    1.416776   -0.000094
      7          1           0       -0.000017   -2.462434    0.000163
      8          1           0        2.060459    1.296255   -0.000370
      9          1           0        2.150336   -1.176655   -0.000220
     10          1           0       -2.150358   -1.176615    0.000371
     11          1           0       -2.060436    1.296287    0.000195
 ---------------------------------------------------------------------

 SCF Done:  E(RM052X) =  -248.259125203     A.U. after   11 cycles

 The electronic state is 1-A.
 Alpha  occ. eigenvalues --  -14.79892 -10.60930 -10.60928 -10.59292 -10.58152
 Alpha  occ. eigenvalues --  -10.58148  -1.05964  -0.90960  -0.86570  -0.71786
 Alpha  occ. eigenvalues --   -0.71525  -0.60864  -0.55047  -0.54031  -0.49613
 Alpha  occ. eigenvalues --   -0.47528  -0.47017  -0.42277  -0.34494  -0.32725
 Alpha  occ. eigenvalues --   -0.31563
 Alpha virt. eigenvalues --    0.01907   0.03491   0.16479   0.21211   0.21308
 Alpha virt. eigenvalues --    0.22797   0.25031   0.25521   0.29846   0.35885
 Alpha virt. eigenvalues --    0.38241   0.38308   0.50970   0.51347   0.57815

 Mulliken charges:
               1
     1  C   -0.016246
     2  C   -0.206201
     3  C   -0.161489
     4  C   -0.206201
     5  C   -0.016246
     6  N   -0.478083
     7  H    0.225593
     8  H    0.211464
     9  H    0.217972
    10  H    0.217972
    11  H    0.211464
 Sum of Mulliken charges =  -0.00000

 Dipole moment (field-independent basis, Debye):
    X=             -0.0000    Y=             -3.1354    Z=              0.0002  Tot=              3.1354
 Quadrupole moment (field-independent basis, Debye-Ang):
   XX=            -26.9350   YY=            -35.2443   ZZ=            -37.4293
   XY=             -0.0001   XZ=             -0.0014   YZ=             -0.0001

 Normal termination of Gaussian 16 at Wed Oct 11 12:00:36 2023.
