 Gaussian 16, Revision A.03,
 Gaussian 16:  ES64L-G16RevA.03 25-Dec-2016

 -----------------------------------------------------------------
 #p opt freq b3lyp/6-311+g(2d,p) scrf=(smd,solvent=water) em=gd3bj
 -----------------------------------------------------------------

 -------------------
 Title Card Required
 -------------------
 Symbolic Z-matrix:
 Charge =  0 Multiplicity = 1

 SCF Done:  E(RB3LYP) =  -248.382396638     A.U. after   11 cycles
 SCF Done:  E(RB3LYP) =  -248.382400692     A.U. after    8 cycles
 Optimization completed.
    -- Stationary point found.
 Normal termination of Gaussian 16 at Wed Oct 11 11:58:39 2023.

 ----------------------------------------------------------------------
 #P Geom=AllCheck Guess=TCheck SCRF=Check GenChk RB3LYP/6-311+G(2d,p) F
 req
 ----------------------------------------------------------------------

 Structure from the checkpoint file:  "/data0/home/software/g16/scratch/Gau-2487943.chk"
 -------------------
 Title Card Required
 -------------------
 Charge =  0 Multiplicity = 1

                         Standard orientation:
 ---------------------------------------------------------------------
 Center     Atomic      Atomic             Coordinates (Angstroms)
 Number     Number       Type             X           Y           Z
 ---------------------------------------------------------------------
      1          6           0        1.143265    0.718079   -0.000211
      2          6           0        1.194172   -0.669579   -0.000121
      3          6           0       -0.000014   -1.379420    0.000092
      4          6           0       -1.194185   -0.669558    0.000210
      5          6           0       -1.143251    0.718100    0.000118
      6          7           0        0.000013    1.416776   -0.000094
      7          1           0       -0.000020   -2.462434    0.000163
      8          1           0        2.060460    1.296252   -0.000370
      9          1           0        2.150334   -1.176658   -0.000220
     10          1           0       -2.150360   -1.176612    0.000371
     11          1           0       -2.060435    1.296290    0.000195
 ---------------------------------------------------------------------

 SCF Done:  E(RB3LYP) =  -248.382400692     A.U. after    1 cycles

 The electronic state is 1-A.
 Alpha  occ. eigenvalues --  -14.31737 -10.20678 -10.20677 -10.18904 -10.17943
 Alpha  occ. eigenvalues --  -10.17940  -0.94882  -0.80784  -0.76555  -0.63257
 Alpha  occ. eigenvalues --   -0.63037  -0.53009  -0.48573  -0.46737  -0.42989
 Alpha  occ. eigenvalues --   -0.40629  -0.40509  -0.36480  -0.29538  -0.27105
 Alpha  occ. eigenvalues --   -0.26982
 Alpha virt. eigenvalues --   -0.03830  -0.02231   0.00917   0.03192   0.03415
 Alpha virt. eigenvalues --    0.05443   0.05629   0.05693   0.06363   0.08725
 Alpha virt. eigenvalues --    0.08985   0.10087   0.10560   0.12408   0.13926

 Mulliken charges:
               1
     1  C   -0.023728
     2  C   -0.050419
     3  C   -0.098440
     4  C   -0.050420
     5  C   -0.023726
     6  N   -0.419560
     7  H    0.135195
     8  H    0.132477
     9  H    0.133072
    10  H    0.133072
    11  H    0.132477
 Sum of Mulliken charges =  -0.00000

 Dipole moment (field-independent basis, Debye):
    X=             -0.0000    Y=             -3.3983    Z=              0.0002  Tot=              3.3983
 Quadrupole moment (field-independent basis, Debye-Ang):
   XX=            -27.9522   YY=            -36.9919   ZZ=            -38.3694
   XY=             -0.0001   XZ=             -0.0014   YZ=             -0.0001

  Exact polarizability: 111.124  -0.000 106.015  -0.008  -0.003  55.857
 Approx polarizability: 121.873  -0.000 118.599  -0.009  -0.004  59.758

                      1                      2                      3
                      A                      A                      A
 Frequencies --    386.2905               414.9284               621.7853
 Red. masses --      2.5469                 3.6764                 7.1153
 Frc consts  --      0.2239                 0.3729                 1.6208
 IR Inten    --      0.0000                 7.5955                 6.5792

                      4                      5                      6
                      A                      A                      A
 Frequencies --    668.3784               715.7190               764.9076
 Red. masses --      6.3710                 1.3268                 2.3383
 Frc consts  --      1.6769                 0.4005                 0.8061
 IR Inten    --      0.2712               124.8864                15.6100

                      7                      8                      9
                      A                      A                      A
 Frequencies --    896.9030               969.5967              1013.1504
 Red. masses --      1.2478                 1.3337                 1.4725
 Frc consts  --      0.5914                 0.7387                 0.8905
 IR Inten    --      0.0000                 0.1579                 0.0000

                     10                     11                     12
                      A                      A                      A
 Frequencies --   1013.4023              1025.8990              1053.1415
 Red. masses --      7.0037                 1.3414                 4.2136
 Frc consts  --      4.2378                 0.8318                 2.7535
 IR Inten    --     13.2775                 0.0103                14.0449

                     13                     14                     15
                      A                      A                      A
 Frequencies --   1078.9878              1088.4712              1162.4913
 Red. masses --      1.7895                 1.8251                 1.1209
 Frc consts  --      1.2275                 1.2740                 0.8925
 IR Inten    --      0.6443                12.6260                 6.1624

                     16                     17                     18
                      A                      A                      A
 Frequencies --   1234.8235              1273.1063              1393.6898
 Red. masses --      1.2990                 7.4926                 1.2059
 Frc consts  --      1.1670                 7.1550                 1.3801
 IR Inten    --      8.3256                 0.3934                 0.4370

                     19                     20                     21
                      A                      A                      A
 Frequencies --   1471.2386              1518.2465              1611.3857
 Red. masses --      2.1431                 1.9003                 5.1066
 Frc consts  --      2.7331                 2.5808                 7.8124
 IR Inten    --     64.2138                 5.2608                14.0009

                     22                     23                     24
                      A                      A                      A
 Frequencies --   1629.9358              3169.1786              3171.0928
 Red. masses --      4.9648                 1.0878                 1.0905
 Frc consts  --      7.7714                 6.4373                 6.4606
 IR Inten    --     56.7457                35.7639                 4.5170

                     25                     26                     27
                      A                      A                      A
 Frequencies --   3183.6187              3195.7955              3202.7969
 Red. masses --      1.0904                 1.0939                 1.0990
 Frc consts  --      6.5115                 6.5825                 6.6422
 IR Inten    --      7.1480                29.9441                 4.4404

 - Thermochemistry -
 -------------------
 Temperature   298.150 Kelvin.  Pressure   1.00000 Atm.
 Atom     1 has atomic number  6 and mass  12.00000

 Molecular mass:    79.04220 amu.
 Principal axes and moments of inertia in atomic units:
                           1         2         3
     Eigenvalues --   298.08423 308.19531 606.27953
           X            0.00002   1.00000   0.00014
           Y            1.00000  -0.00002   0.00007
           Z           -0.00007  -0.00014   1.00000
 This molecule is an asymmetric top.
 Rotational symmetry number  1.
 Rotational temperatures (Kelvin)      0.29057     0.28104     0.14286
 Rotational constants (GHZ):           6.05447     5.85584     2.97675
 Zero-point vibrational energy     232846.9 (Joules/Mol)
                                   55.65174 (Kcal/Mol)
 Warning -- explicit consideration of   2 degrees of freedom as
           vibrations may cause significant error
 Vibrational temperatures:    555.79   596.99   894.61   961.65  1029.76
          (Kelvin)           1100.53  1290.44  1395.03  1457.70  1458.06
                             1476.04  1515.24  1552.42  1566.07  1672.57
                             1776.64  1831.72  2005.21  2116.78  2184.42
                             2318.42  2345.11  4559.74  4562.50  4580.52
                             4598.04  4608.11

 Zero-point correction=                           0.088687 (Hartree/Particle)
 Thermal correction to Energy=                    0.092960
 Thermal correction to Enthalpy=                  0.093904
 Thermal correction to Gibbs Free Energy=         0.061292
 Sum of electronic and zero-point Energies=           -248.293714
 Sum of electronic and thermal Energies=              -248.289441
 Sum of electronic and thermal Enthalpies=            -248.288496
 Sum of electronic and thermal Free Energies=         -248.321109

                     E (Thermal)             CV                S
                      KCal/Mol        Cal/Mol-Kelvin    Cal/Mol-Kelvin
 Total                   58.333             16.123             68.639
 Electronic               0.000              0.000              0.000
 Translational            0.889              2.981             39.017
 Rotational               0.889              2.981             25.524
 Vibrational             56.556             10.161              4.098
 Vibration     1          0.755              1.499              1.014
 Vibration     2          0.778              1.438              0.909

 Optimization completed.
    -- Stationary point found.
 Normal termination of Gaussian 16 at Wed Oct 11 11:59:28 2023.
