 Gaussian 16, Revision A.03,
 Gaussian 16:  ES64L-G16RevA.03 25-Dec-2016

 -----------------------------------
 #p opt freq B3LYP/6-311G** em=GD3BJ
 -----------------------------------

 -------------------
 Title Card Required
 -------------------
 Symbolic Z-matrix:
 Charge =  0 Multiplicity = 1

 SCF Done:  E(RB3LYP) =  -644.200643002     A.U. after   15 cycles
 SCF Done:  E(RB3LYP) =  -644.249626713     A.U. after   13 cycles
 SCF Done:  E(RB3LYP) =  -644.267728060     A.U. after   12 cycles
 SCF Done:  E(RB3LYP) =  -644.273951463     A.U. after   12 cycles
 SCF Done:  E(RB3LYP) =  -644.274846295     A.U. after   10 cycles
 SCF Done:  E(RB3LYP) =  -644.275690522     A.U. after   11 cycles
 SCF Done:  E(RB3LYP) =  -644.277024827     A.U. after   12 cycles
 SCF Done:  E(RB3LYP) =  -644.277307983     A.U. after   10 cycles
 SCF Done:  E(RB3LYP) =  -644.277492397     A.U. after   11 cycles
 SCF Done:  E(RB3LYP) =  -644.277538754     A.U. after    9 cycles
 SCF Done:  E(RB3LYP) =  -644.277628455     A.U. after   11 cycles
 SCF Done:  E(RB3LYP) =  -644.277652897     A.U. after    9 cycles
 SCF Done:  E(RB3LYP) =  -644.277675605     A.U. after   10 cycles
 SCF Done:  E(RB3LYP) =  -644.277678034     A.U. after    7 cycles
 SCF Done:  E(RB3LYP) =  -644.277680728     A.U. after    8 cycles
 SCF Done:  E(RB3LYP) =  -644.277681699     A.U. after    7 cycles
 SCF Done:  E(RB3LYP) =  -644.277682525     A.U. after    7 cycles
 SCF Done:  E(RB3LYP) =  -644.277683104     A.U. after    8 cycles
 SCF Done:  E(RB3LYP) =  -644.277683123     A.U. after    7 cycles
 Optimization completed.
    -- Stationary point found.
 Normal termination of Gaussian 16 at Wed Apr 20 09:17:45 2022.

 ----------------------------------------------------------------------
 #P Geom=AllCheck Guess=TCheck SCRF=Check GenChk RB3LYP/6-311G(d,p) Fre
 q
 ----------------------------------------------------------------------

 Structure from the checkpoint file:  "PA.chk"
 -------------------
 Title Card Required
 -------------------
 Charge =  0 Multiplicity = 1

                         Standard orientation:
 ---------------------------------------------------------------------
 Center     Atomic      Atomic             Coordinates (Angstroms)
 Number     Number       Type             X           Y           Z
 ---------------------------------------------------------------------
      1         15           0       -0.078910    0.058155    0.108156
      2          8           0       -1.027696    0.523110    1.125703
      3          8           0        0.982714    1.165055   -0.343487
      4          1           0        1.662724    0.831873   -0.940493
      5          8           0        0.905605   -1.163061    0.457917
      6          1           0        0.446489   -1.946553    0.780566
      7          8           0       -0.771829   -0.485093   -1.250050
      8          1           0       -1.635913   -0.077731   -1.383075
 ---------------------------------------------------------------------

 SCF Done:  E(RB3LYP) =  -644.277683123     A.U. after    1 cycles

 The electronic state is 1-A.
 Alpha  occ. eigenvalues --  -77.20692 -19.17223 -19.16829 -19.16826 -19.08836
 Alpha  occ. eigenvalues --   -6.68790  -4.85036  -4.85015  -4.84820  -1.12202
 Alpha  occ. eigenvalues --   -1.05588  -1.05566  -0.98119  -0.66831  -0.59159
 Alpha  occ. eigenvalues --   -0.57824  -0.47502  -0.45753  -0.42239  -0.40423
 Alpha  occ. eigenvalues --   -0.39522  -0.37991  -0.35362  -0.31585  -0.30906
 Alpha virt. eigenvalues --   -0.00621   0.03940   0.04121   0.10986   0.13019
 Alpha virt. eigenvalues --    0.13535   0.15621   0.20426   0.21467   0.24030
 Alpha virt. eigenvalues --    0.33936   0.36921   0.37524   0.43230   0.59779

 Mulliken charges:
               1
     1  P    1.195409
     2  O   -0.561355
     3  O   -0.495561
     4  H    0.300664
     5  O   -0.527511
     6  H    0.313129
     7  O   -0.534949
     8  H    0.310173
 Sum of Mulliken charges =   0.00000

 Dipole moment (field-independent basis, Debye):
    X=              0.6304    Y=             -2.1341    Z=             -2.5534  Tot=              3.3870
 Quadrupole moment (field-independent basis, Debye-Ang):
   XX=            -32.4119   YY=            -34.1556   ZZ=            -36.6352
   XY=              1.4849   XZ=              2.3008   YZ=             -5.4900

  Exact polarizability:  31.652  -0.705  29.150  -1.551  -0.377  28.905
 Approx polarizability:  43.505  -2.477  38.940  -5.066   1.699  39.840

                      1                      2                      3
                      A                      A                      A
 Frequencies --    169.4421               241.1442               279.8806
 Red. masses --      1.3065                 1.2401                 1.5305
 Frc consts  --      0.0221                 0.0425                 0.0706
 IR Inten    --     38.1957               184.2202                51.1559

                      4                      5                      6
                      A                      A                      A
 Frequencies --    363.5941               394.6981               439.7796
 Red. masses --      3.2962                 2.2174                 3.4752
 Frc consts  --      0.2567                 0.2035                 0.3960
 IR Inten    --     10.7937                12.2980                65.2148

                      7                      8                      9
                      A                      A                      A
 Frequencies --    447.4896               469.0405               816.1607
 Red. masses --      8.4008                10.1670                11.5665
 Frc consts  --      0.9911                 1.3178                 4.5395
 IR Inten    --     75.7411                94.8309                31.3552

                     10                     11                     12
                      A                      A                      A
 Frequencies --    900.7629               914.4054               993.3356
 Red. masses --      7.9538                 5.1198                 1.1473
 Frc consts  --      3.8023                 2.5222                 0.6670
 IR Inten    --    381.2837               261.4902               111.3855

                     13                     14                     15
                      A                      A                      A
 Frequencies --   1033.9518              1041.2641              1340.9726
 Red. masses --      1.3843                 1.3478                12.7551
 Frc consts  --      0.8719                 0.8610                13.5137
 IR Inten    --    114.1454                65.8878               260.9363

                     16                     17                     18
                      A                      A                      A
 Frequencies --   3831.0183              3834.9048              3844.3377
 Red. masses --      1.0658                 1.0659                 1.0663
 Frc consts  --      9.2161                 9.2356                 9.2848
 IR Inten    --    150.1299                79.0956               102.2396

 - Thermochemistry -
 -------------------
 Temperature   298.150 Kelvin.  Pressure   1.00000 Atm.
 Atom     1 has atomic number 15 and mass  30.97376

 Molecular mass:    97.97690 amu.
 Principal axes and moments of inertia in atomic units:
                           1         2         3
     Eigenvalues --   392.85716 407.19534 422.90861
           X            0.95655   0.28404   0.06588
           Y           -0.20556   0.81716  -0.53852
           Z           -0.20679   0.50157   0.84004
 This molecule is an asymmetric top.
 Rotational symmetry number  1.
 Rotational temperatures (Kelvin)      0.22047     0.21271     0.20481
 Rotational constants (GHZ):           4.59389     4.43213     4.26745
 Zero-point vibrational energy     127738.3 (Joules/Mol)
                                   30.53020 (Kcal/Mol)
 Warning -- explicit consideration of   8 degrees of freedom as
           vibrations may cause significant error
 Vibrational temperatures:    243.79   346.95   402.69   523.13   567.88
          (Kelvin)            632.74   643.84   674.84  1174.27  1296.00
                             1315.63  1429.19  1487.63  1498.15  1929.36
                             5511.98  5517.57  5531.14

 Zero-point correction=                           0.048653 (Hartree/Particle)
 Thermal correction to Energy=                    0.054778
 Thermal correction to Enthalpy=                  0.055722
 Thermal correction to Gibbs Free Energy=         0.019446
 Sum of electronic and zero-point Energies=           -644.229030
 Sum of electronic and thermal Energies=              -644.222905
 Sum of electronic and thermal Enthalpies=            -644.221961
 Sum of electronic and thermal Free Energies=         -644.258237

                     E (Thermal)             CV                S
                      KCal/Mol        Cal/Mol-Kelvin    Cal/Mol-Kelvin
 Total                   34.374             21.221             76.350
 Electronic               0.000              0.000              0.000
 Translational            0.889              2.981             39.657
 Rotational               0.889              2.981             25.717
 Vibrational             32.596             15.259             10.976
 Vibration     1          0.625              1.880              2.442
 Vibration     2          0.658              1.777              1.794
 Vibration     3          0.680              1.711              1.534
 Vibration     4          0.737              1.547              1.107
 Vibration     5          0.762              1.482              0.982
 Vibration     6          0.800              1.383              0.827
 Vibration     7          0.807              1.366              0.803
 Vibration     8          0.826              1.319              0.740

 Optimization completed.
    -- Stationary point found.
 Normal termination of Gaussian 16 at Wed Apr 20 09:17:57 2022.
