 Gaussian 16, Revision A.03,
 Gaussian 16:  ES64L-G16RevA.03 25-Dec-2016

 --------------------------------------------------------
 #p opt freq b3lyp/6-311+g(2d,p) scrf=(smd,solvent=water)
 --------------------------------------------------------

 -------------------
 Title Card Required
 -------------------
 Symbolic Z-matrix:
 Charge =  0 Multiplicity = 1

 SCF Done:  E(RB3LYP) =  -870.661981298     A.U. after   12 cycles
 SCF Done:  E(RB3LYP) =  -870.663917398     A.U. after   10 cycles
 SCF Done:  E(RB3LYP) =  -870.665260762     A.U. after   10 cycles
 SCF Done:  E(RB3LYP) =  -870.665876633     A.U. after   10 cycles
 SCF Done:  E(RB3LYP) =  -870.666251903     A.U. after   10 cycles
 SCF Done:  E(RB3LYP) =  -870.666455792     A.U. after   12 cycles
 SCF Done:  E(RB3LYP) =  -870.666664356     A.U. after    8 cycles
 SCF Done:  E(RB3LYP) =  -870.666881316     A.U. after    9 cycles
 SCF Done:  E(RB3LYP) =  -870.666946955     A.U. after    8 cycles
 SCF Done:  E(RB3LYP) =  -870.667022508     A.U. after    9 cycles
 SCF Done:  E(RB3LYP) =  -870.667082227     A.U. after    7 cycles
 SCF Done:  E(RB3LYP) =  -870.667082575     A.U. after    7 cycles
 SCF Done:  E(RB3LYP) =  -870.667082937     A.U. after    7 cycles
 SCF Done:  E(RB3LYP) =  -870.667083407     A.U. after    7 cycles
 SCF Done:  E(RB3LYP) =  -870.667083850     A.U. after    7 cycles
 SCF Done:  E(RB3LYP) =  -870.667084402     A.U. after    7 cycles
 SCF Done:  E(RB3LYP) =  -870.667085003     A.U. after    7 cycles
 SCF Done:  E(RB3LYP) =  -870.667085351     A.U. after    7 cycles
 SCF Done:  E(RB3LYP) =  -870.667085452     A.U. after    7 cycles
 Optimization completed.
    -- Stationary point found.
 Normal termination of Gaussian 16 at Sun Dec 11 18:09:28 2022.

 ----------------------------------------------------------------------
 #P Geom=AllCheck Guess=TCheck SCRF=Check GenChk RB3LYP/6-311+G(2d,p) F
 req
 ----------------------------------------------------------------------

 Structure from the checkpoint file:  "/data0/home/software/g16/scratch/Gau-1517809.chk"
 -------------------
 Title Card Required
 -------------------
 Charge =  0 Multiplicity = 1

                         Standard orientation:
 ---------------------------------------------------------------------
 Center     Atomic      Atomic             Coordinates (Angstroms)
 Number     Number       Type             X           Y           Z
 ---------------------------------------------------------------------
      1          6           0       -3.888423   -0.443817   -0.057564
      2          6           0       -2.755321   -1.190585   -0.014316
      3          6           0       -2.157118    0.929091    0.060538
      4          7           0       -3.486951    0.874522   -0.009542
      5          1           0       -4.096237    1.682968   -0.023859
      6          1           0       -4.924196   -0.726210   -0.117434
      7          1           0       -2.616105   -2.256870   -0.029217
      8          1           0       -1.565822    1.826785    0.108681
      9          7           0       -1.693628   -0.314038    0.059240
     10         15           0        1.976231    0.063910    0.011836
     11          8           0        1.573192    1.502955    0.100300
     12          8           0        0.918555   -1.001287    0.203755
     13          1           0       -0.675353   -0.569357    0.104969
     14          8           0        2.721294   -0.114401   -1.414316
     15          1           0        2.941519   -1.039226   -1.602287
     16          8           0        3.218315   -0.261356    1.013418
     17          1           0        2.911107   -0.575550    1.876527
 ---------------------------------------------------------------------

 SCF Done:  E(RB3LYP) =  -870.667085452     A.U. after    1 cycles

 The electronic state is 1-A.
 Alpha  occ. eigenvalues --  -77.16163 -19.14478 -19.14222 -19.08496 -19.07670
 Alpha  occ. eigenvalues --  -14.40202 -14.38769 -10.27276 -10.22645 -10.22403
 Alpha  occ. eigenvalues --   -6.63960  -4.80312  -4.80200  -4.79986  -1.07669
 Alpha  occ. eigenvalues --   -1.07333  -1.02002  -0.97497  -0.94578  -0.93352
 Alpha  occ. eigenvalues --   -0.79272  -0.67915  -0.64437  -0.61174  -0.60059
 Alpha  occ. eigenvalues --   -0.54099  -0.52967  -0.48136  -0.47645  -0.46959
 Alpha  occ. eigenvalues --   -0.46408  -0.45470  -0.43856  -0.41510  -0.38895
 Alpha  occ. eigenvalues --   -0.36718  -0.35265  -0.34410  -0.33373  -0.31053
 Alpha  occ. eigenvalues --   -0.29441  -0.28039  -0.27379
 Alpha virt. eigenvalues --   -0.02168  -0.00630   0.00916   0.01255   0.02962
 Alpha virt. eigenvalues --    0.03199   0.04158   0.04458   0.05478   0.05835
 Alpha virt. eigenvalues --    0.06610   0.07402   0.09310   0.09926   0.10494

 Mulliken charges:
               1
     1  C   -0.112592
     2  C    0.008833
     3  C    0.162006
     4  N   -0.243939
     5  H    0.371219
     6  H    0.180591
     7  H    0.176382
     8  H    0.218416
     9  N   -0.314482
    10  P    1.557879
    11  O   -0.924347
    12  O   -0.956393
    13  H    0.467514
    14  O   -0.614187
    15  H    0.337098
    16  O   -0.663592
    17  H    0.349594
 Sum of Mulliken charges =  -0.00000

 Dipole moment (field-independent basis, Debye):
    X=            -16.4057    Y=             -2.4413    Z=              0.7886  Tot=             16.6051
 Quadrupole moment (field-independent basis, Debye-Ang):
   XX=            -33.8792   YY=            -62.9140   ZZ=            -63.4859
   XY=            -18.7468   XZ=              2.3543   YZ=              2.0164

  Exact polarizability: 127.093   0.776 123.509   1.211   0.632  88.921
 Approx polarizability: 132.940  -0.839 133.168   1.124   0.369  91.127

                      1                      2                      3
                      A                      A                      A
 Frequencies --     25.4436                41.1619                46.1211
 Red. masses --      4.4902                 7.0925                 7.1803
 Frc consts  --      0.0017                 0.0071                 0.0090
 IR Inten    --     11.1667                 7.9754                24.0843

                      4                      5                      6
                      A                      A                      A
 Frequencies --     93.0636               100.9971               109.6691
 Red. masses --      4.8217                 3.2126                 1.3777
 Frc consts  --      0.0246                 0.0193                 0.0098
 IR Inten    --      3.2977                47.9544               137.6971

                      7                      8                      9
                      A                      A                      A
 Frequencies --    146.3651               256.1224               355.0016
 Red. masses --      6.6033                 1.4903                 4.1618
 Frc consts  --      0.0833                 0.0576                 0.3090
 IR Inten    --     24.2179               218.8847                65.2266

                     10                     11                     12
                      A                      A                      A
 Frequencies --    381.4472               461.3552               464.1520
 Red. masses --      3.2203                10.0541                 8.4414
 Frc consts  --      0.2761                 1.2609                 1.0715
 IR Inten    --     31.5419                97.1049                97.5439

                     13                     14                     15
                      A                      A                      A
 Frequencies --    485.0005               607.4192               638.0418
 Red. masses --     12.5447                 2.1655                 3.1901
 Frc consts  --      1.7386                 0.4708                 0.7652
 IR Inten    --    162.7637               141.8869                12.8748

                     16                     17                     18
                      A                      A                      A
 Frequencies --    678.3400               752.4723               785.8075
 Red. masses --      1.3640                 1.2219                15.4327
 Frc consts  --      0.3698                 0.4076                 5.6147
 IR Inten    --     45.4286                83.4971               265.5808

                     19                     20                     21
                      A                      A                      A
 Frequencies --    808.9492               853.9233               877.2100
 Red. masses --     13.3125                 1.4376                 1.3693
 Frc consts  --      5.1328                 0.6176                 0.6208
 IR Inten    --    424.1907                81.6271                 0.0884

                     22                     23                     24
                      A                      A                      A
 Frequencies --    916.1468               941.0069              1006.5902
 Red. masses --      4.6380                 4.6251                 1.0689
 Frc consts  --      2.2936                 2.4130                 0.6381
 IR Inten    --     53.2926                15.6247               106.8198

                     25                     26                     27
                      A                      A                      A
 Frequencies --   1037.4856              1055.1470              1060.0606
 Red. masses --      5.2530                 1.2341                 1.5719
 Frc consts  --      3.3313                 0.8095                 1.0407
 IR Inten    --    405.5422               208.3788                86.4956

                     28                     29                     30
                      A                      A                      A
 Frequencies --   1076.9881              1114.5300              1128.5709
 Red. masses --      1.3869                 1.2960                 2.1158
 Frc consts  --      0.9478                 0.9485                 1.5877
 IR Inten    --    217.7463                16.8028                31.7835

                     31                     32                     33
                      A                      A                      A
 Frequencies --   1178.1661              1187.7489              1237.1970
 Red. masses --      2.1904                 3.4225                 1.8483
 Frc consts  --      1.7913                 2.8448                 1.6669
 IR Inten    --    184.5962               477.3564                39.6087

                     34                     35                     36
                      A                      A                      A
 Frequencies --   1348.7016              1451.7036              1505.4979
 Red. masses --      1.8055                 2.7391                 2.0621
 Frc consts  --      1.9350                 3.4010                 2.7537
 IR Inten    --      0.9102                19.2064                20.0453

                     37                     38                     39
                      A                      A                      A
 Frequencies --   1555.6803              1631.7207              2868.0714
 Red. masses --      3.2729                 2.3955                 1.1175
 Frc consts  --      4.6669                 3.7579                 5.4158
 IR Inten    --      5.1495                77.5700              3040.3454

                     40                     41                     42
                      A                      A                      A
 Frequencies --   3290.0541              3303.5212              3307.7305
 Red. masses --      1.0948                 1.1028                 1.1100
 Frc consts  --      6.9821                 7.0910                 7.1553
 IR Inten    --     17.3773                54.9686                 2.7652

                     43                     44                     45
                      A                      A                      A
 Frequencies --   3598.9751              3771.5194              3782.1192
 Red. masses --      1.0844                 1.0655                 1.0658
 Frc consts  --      8.2756                 8.9300                 8.9826
 IR Inten    --    288.6664               190.5171               197.9082

 - Thermochemistry -
 -------------------
 Temperature   298.150 Kelvin.  Pressure   1.00000 Atm.
 Atom     1 has atomic number  6 and mass  12.00000

 Molecular mass:   166.01435 amu.
 Principal axes and moments of inertia in atomic units:
                           1         2         3
     Eigenvalues --   587.688264001.014764191.97534
           X            0.99999  -0.00483   0.00113
           Y            0.00481   0.99987   0.01530
           Z           -0.00120  -0.01530   0.99988
 This molecule is an asymmetric top.
 Rotational symmetry number  1.
 Warning -- assumption of classical behavior for rotation
           may cause significant error
 Rotational temperatures (Kelvin)      0.14738     0.02165     0.02066
 Rotational constants (GHZ):           3.07092     0.45107     0.43052
 Zero-point vibrational energy     318942.4 (Joules/Mol)
                                   76.22905 (Kcal/Mol)
 Warning -- explicit consideration of  14 degrees of freedom as
           vibrations may cause significant error
 Vibrational temperatures:     36.61    59.22    66.36   133.90   145.31
          (Kelvin)            157.79   210.59   368.50   510.77   548.82
                              663.79   667.81   697.81   873.94   918.00
                              975.98  1082.64  1130.60  1163.90  1228.61
                             1262.11  1318.13  1353.90  1448.26  1492.71
                             1518.12  1525.19  1549.55  1603.56  1623.76
                             1695.12  1708.91  1780.05  1940.48  2088.68
                             2166.08  2238.28  2347.68  4126.52  4733.65
                             4753.03  4759.09  5178.12  5426.38  5441.63

 Zero-point correction=                           0.121479 (Hartree/Particle)
 Thermal correction to Energy=                    0.132812
 Thermal correction to Enthalpy=                  0.133756
 Thermal correction to Gibbs Free Energy=         0.081291
 Sum of electronic and zero-point Energies=           -870.545607
 Sum of electronic and thermal Energies=              -870.534274
 Sum of electronic and thermal Enthalpies=            -870.533330
 Sum of electronic and thermal Free Energies=         -870.585795

                     E (Thermal)             CV                S
                      KCal/Mol        Cal/Mol-Kelvin    Cal/Mol-Kelvin
 Total                   83.341             38.518            110.422
 Electronic               0.000              0.000              0.000
 Translational            0.889              2.981             41.229
 Rotational               0.889              2.981             30.667
 Vibrational             81.563             32.556             38.526
 Vibration     1          0.593              1.985              6.156
 Vibration     2          0.594              1.981              5.202
 Vibration     3          0.595              1.979              4.977
 Vibration     4          0.602              1.954              3.595
 Vibration     5          0.604              1.948              3.435
 Vibration     6          0.606              1.941              3.275
 Vibration     7          0.617              1.907              2.719
 Vibration     8          0.666              1.752              1.688
 Vibration     9          0.731              1.565              1.144
 Vibration    10          0.751              1.510              1.033
 Vibration    11          0.819              1.336              0.762
 Vibration    12          0.822              1.330              0.754
 Vibration    13          0.841              1.283              0.697
 Vibration    14          0.966              1.016              0.437

                           ! Non-Optimized Parameters !
 Normal termination of Gaussian 16 at Sun Dec 11 18:12:21 2022.
