                               Psi4 1.3.2 release

  ==> Input File <==

--------------------------------------------------------------------------
memory 200 GB

molecule dimer {
0 1
C     13.80800000    5.54300000    8.39600000
C     14.75200000    5.59600000    7.37800000
C     14.79900000    6.70800000    6.53200000
C     13.83100000    7.69900000    6.65500000
C     12.83900000    7.57300000    7.64700000
H     15.60600000    6.80500000    5.80400000
H     13.80100000    4.72600000    9.13100000
H     15.50000000    4.80500000    7.29700000
H     12.02100000    8.30900000    7.71800000
C     13.84100000    8.93400000    5.83400000
H     14.62100000    8.93700000    5.06300000
H     12.88200000    9.13200000    5.34000000
H     14.04400000    9.80700000    6.50000000
N     12.87600000    6.54100000    8.52800000
C     11.94500000    6.46500000    9.68000000
H     11.08000000    5.83400000    9.37500000
H     12.47500000    5.93100000   10.51600000
C     11.44400000    7.81900000   10.21900000
H     11.10100000    8.48500000    9.40100000
H     10.51800000    7.61700000   10.80500000
C     12.45200000    8.52000000   11.11800000
H     13.16600000    7.80400000   11.56800000
H     11.94200000    8.98800000   11.98100000
S     13.39900000    9.83600000   10.29000000
O     14.56100000   10.05300000   11.18200000
O     12.45800000   10.93300000   10.10400000
O     13.83500000    9.21300000    8.97900000
--
0 1
P     16.21299900    7.13600000   10.24000000
O     15.07700000    6.25900000   10.55900000
O     17.54200000    6.25900000   10.10500000
H     18.32600000    6.91300000    9.96200000
O     16.12100000    7.85000000    8.82700000
H     15.23800000    8.47300000    8.82000000
O     16.60899900    8.23100000   11.30600000
H     15.85400000    8.99700000   11.30900000
}

set {
    scf_type DF
    freeze_core True
    basis aug-cc-pVTZ
}

energy('sapt2+(3)dmp2')
--------------------------------------------------------------------------

  //              Dimer HF             //
    Molecular point group: c1
  Charge       = 0
  Multiplicity = 1
  Basis Set: AUG-CC-PVTZ
    Blend: AUG-CC-PVTZ
  Basis Set: (AUG-CC-PVTZ AUX)
    Blend: AUG-CC-PVTZ-JKFIT
  @DF-RHF Final Energy: -1667.33885984284552
    Total Energy =                      -1667.3388598428455225
  Basis Set: (AUG-CC-PVTZ AUX)
    Blend: AUG-CC-PVTZ-RI
	 Reference Energy          =   -1667.3388598428455225 [Eh]
	 Singles Energy            =      -0.0000000000000000 [Eh]
	 Same-Spin Energy          =      -0.9851631418788912 [Eh]
	 Opposite-Spin Energy      =      -2.8309092698599927 [Eh]
	 Correlation Energy        =      -3.8160724117388840 [Eh]
	 Total Energy              =   -1671.1549322545843097 [Eh]
	 SCS Total Energy          =   -1671.0643386806370927 [Eh]
  //            Monomer A HF           //
    Molecular point group: c1
  Multiplicity = 1
  Basis Set: AUG-CC-PVTZ
    Blend: AUG-CC-PVTZ
  Basis Set: (AUG-CC-PVTZ AUX)
    Blend: AUG-CC-PVTZ-JKFIT
  @DF-RHF Final Energy: -1025.10497388456315
    Total Energy =                      -1025.1049738845631509
  Basis Set: (AUG-CC-PVTZ AUX)
	 Singles Energy            =      -0.0000000000000000 [Eh]
	 Same-Spin Energy          =      -0.6729887185747170 [Eh]
	 Opposite-Spin Energy      =      -1.9750591635950894 [Eh]
	 Correlation Energy        =      -2.6480478821698066 [Eh]
	 Total Energy              =   -1027.7530217667328998 [Eh]
	 SCS Total Energy          =   -1027.6993744537355724 [Eh]
  //            Monomer B HF           //
    Molecular point group: c1

    Geometry (in Angstrom), charge = 0, multiplicity = 1:

       Center              X                  Y                   Z               Mass
    ------------   -----------------  -----------------  -----------------  -----------------
      Gh(C)          -0.458605927113    -2.342187636223    -0.949210894518    12.000000000000
      Gh(C)           0.485394072887    -2.289187636223    -1.967210894518    12.000000000000
      Gh(C)           0.532394072887    -1.177187636223    -2.813210894518    12.000000000000
      Gh(C)          -0.435605927113    -0.186187636223    -2.690210894518    12.000000000000
      Gh(C)          -1.427605927113    -0.312187636223    -1.698210894518    12.000000000000
      Gh(H)           1.339394072887    -1.080187636223    -3.541210894518     1.007825032230
      Gh(H)          -0.465605927113    -3.159187636223    -0.214210894518     1.007825032230
      Gh(H)           1.233394072887    -3.080187636223    -2.048210894518     1.007825032230
      Gh(H)          -2.245605927113     0.423812363777    -1.627210894518     1.007825032230
      Gh(C)          -0.425605927113     1.048812363777    -3.511210894518    12.000000000000
      Gh(H)           0.354394072887     1.051812363777    -4.282210894518     1.007825032230
      Gh(H)          -1.384605927113     1.246812363777    -4.005210894518     1.007825032230
      Gh(H)          -0.222605927113     1.921812363777    -2.845210894518     1.007825032230
      Gh(N)          -1.390605927113    -1.344187636223    -0.817210894518    14.003074004430
      Gh(C)          -2.321605927113    -1.420187636223     0.334789105482    12.000000000000
      Gh(H)          -3.186605927113    -2.051187636223     0.029789105482     1.007825032230
      Gh(H)          -1.791605927113    -1.954187636223     1.170789105482     1.007825032230
      Gh(C)          -2.822605927113    -0.066187636223     0.873789105482    12.000000000000
      Gh(H)          -3.165605927113     0.599812363777     0.055789105482     1.007825032230
      Gh(H)          -3.748605927113    -0.268187636223     1.459789105482     1.007825032230
      Gh(C)          -1.814605927113     0.634812363777     1.772789105482    12.000000000000
      Gh(H)          -1.100605927113    -0.081187636223     2.222789105482     1.007825032230
      Gh(H)          -2.324605927113     1.102812363777     2.635789105482     1.007825032230
      Gh(S)          -0.867605927113     1.950812363777     0.944789105482    31.972071174400
      Gh(O)           0.294394072887     2.167812363777     1.836789105482    15.994914619570
      Gh(O)          -1.808605927113     3.047812363777     0.758789105482    15.994914619570
      Gh(O)          -0.431605927113     1.327812363777    -0.366210894518    15.994914619570
         P            1.946393072887    -0.749187636223     0.894789105482    30.973761998420
         O            0.810394072887    -1.626187636223     1.213789105482    15.994914619570
         O            3.275394072887    -1.626187636223     0.759789105482    15.994914619570
         H            4.059394072887    -0.972187636223     0.616789105482     1.007825032230
         O            1.854394072887    -0.035187636223    -0.518210894518    15.994914619570
         H            0.971394072887     0.587812363777    -0.525210894518     1.007825032230
         O            2.342393072887     0.345812363777     1.960789105482    15.994914619570
         H            1.587394072887     1.111812363777     1.963789105482     1.007825032230

  Charge       = 0
  Multiplicity = 1
  Basis Set: AUG-CC-PVTZ
    Blend: AUG-CC-PVTZ
  Basis Set: (AUG-CC-PVTZ AUX)
    Blend: AUG-CC-PVTZ-JKFIT

    Orbital Energies [Eh]
    ---------------------

    Doubly Occupied:

       1A    -80.108943     2A    -20.638787     3A    -20.632788
       4A    -20.614532     5A    -20.504078     6A     -7.626992
       7A     -5.525444     8A     -5.525163     9A     -5.523651
      10A     -1.465684    11A     -1.391864    12A     -1.379642
      13A     -1.289956    14A     -0.842414    15A     -0.758412
      16A     -0.738283    17A     -0.697931    18A     -0.638086
      19A     -0.630856    20A     -0.602076    21A     -0.569489
      22A     -0.555708    23A     -0.548517    24A     -0.465574
      25A     -0.460287

  @DF-RHF Final Energy:  -642.17607648143382

   => Energetics <=

    Nuclear Repulsion Energy =            279.7343211296731624
    One-Electron Energy =               -1444.3504755274427680
    Two-Electron Energy =                 522.4400779163357811
    Total Energy =                       -642.1760764814338245

  Dipole Moment: [D]
     X:     1.1059      Y:     5.6520      Z:    -0.8947     Total:     5.8283

  Basis Set: (AUG-CC-PVTZ AUX)
    Blend: AUG-CC-PVTZ-RI
	 Reference Energy          =    -642.1760764814338245 [Eh]
	 Singles Energy            =      -0.0000000000000000 [Eh]
	 Same-Spin Energy          =      -0.2989483626607089 [Eh]
	 Opposite-Spin Energy      =      -0.8485055952820665 [Eh]
	 Correlation Energy        =      -1.1474539579427754 [Eh]
	 Total Energy              =    -643.3235304393765546 [Eh]

	 ================> DF-SCS-MP2 Energies <==================
	-----------------------------------------------------------
	 SCS Same-Spin Scale       =       0.3333333333333333 [-]
	 SCS Opposite-Spin Scale   =       1.2000000000000000 [-]
	 SCS Same-Spin Energy      =      -0.0996494542202363 [Eh]
	 SCS Opposite-Spin Energy  =      -1.0182067143384796 [Eh]
	 SCS Correlation Energy    =      -1.1178561685587161 [Eh]
	 SCS Total Energy          =    -643.2939326499924846 [Eh]
	-----------------------------------------------------------

    SAPT Results
  --------------------------------------------------------------------------------------------------------
    Electrostatics               -102.95202848 [mEh]     -64.60337322 [kcal/mol]    -270.30051354 [kJ/mol]
      Elst10,r                   -107.94614361 [mEh]     -67.73722777 [kcal/mol]    -283.41256100 [kJ/mol]
      Elst12,r                      5.35853360 [mEh]       3.36253060 [kcal/mol]      14.06882804 [kJ/mol]
      Elst13,r                     -0.36441847 [mEh]      -0.22867605 [kcal/mol]      -0.95678057 [kJ/mol]

    Exchange                      115.48586143 [mEh]      72.46847213 [kcal/mol]     303.20808741 [kJ/mol]
      Exch10                      101.99167620 [mEh]      64.00074306 [kcal/mol]     267.77910897 [kJ/mol]
      Exch10(S^2)                 100.70479165 [mEh]      63.19321082 [kcal/mol]     264.40039405 [kJ/mol]
      Exch11(S^2)                   1.58730474 [mEh]       0.99604876 [kcal/mol]       4.16746803 [kJ/mol]
      Exch12(S^2)                  11.90688049 [mEh]       7.47168031 [kcal/mol]      31.26151041 [kJ/mol]

    Induction                     -52.04868729 [mEh]     -32.66104438 [kcal/mol]    -136.65380967 [kJ/mol]
      Ind20,r                     -65.16907482 [mEh]     -40.89421185 [kcal/mol]    -171.10138238 [kJ/mol]
      Ind22                        -7.77754630 [mEh]      -4.88048399 [kcal/mol]     -20.41994501 [kJ/mol]
      Exch-Ind20,r                 35.18124228 [mEh]      22.07656283 [kcal/mol]      92.36833889 [kJ/mol]
      Exch-Ind22                    4.19867463 [mEh]       2.63470811 [kcal/mol]      11.02361871 [kJ/mol]
      delta HF,r (2)              -21.86717690 [mEh]     -13.72186067 [kcal/mol]     -57.41226503 [kJ/mol]
      delta MP2,r (2)               3.38519382 [mEh]       2.12424119 [kcal/mol]       8.88782515 [kJ/mol]

    Dispersion                    -41.52955440 [mEh]     -26.06018883 [kcal/mol]    -109.03583004 [kJ/mol]
      Disp20                      -48.02306965 [mEh]     -30.13493117 [kcal/mol]    -126.08455200 [kJ/mol]
      Disp30                        1.48181017 [mEh]       0.92984992 [kcal/mol]       3.89049207 [kJ/mol]
      Disp21                        8.96435796 [mEh]       5.62521954 [kcal/mol]      23.53591857 [kJ/mol]
      Disp22 (SDQ)                 -2.38319933 [mEh]      -1.49548015 [kcal/mol]      -6.25708897 [kJ/mol]
      Disp22 (T)                   -9.40073182 [mEh]      -5.89904827 [kcal/mol]     -24.68161798 [kJ/mol]
      Est. Disp22 (T)             -10.36291060 [mEh]      -6.50282458 [kcal/mol]     -27.20781802 [kJ/mol]
      Exch-Disp20                   8.79345705 [mEh]       5.51797761 [kcal/mol]      23.08721831 [kJ/mol]

  Total HF                        -57.80947685 [mEh]     -36.27599440 [kcal/mol]    -151.77876056 [kJ/mol]
  Total SAPT0                     -97.03908945 [mEh]     -60.89294796 [kcal/mol]    -254.77609425 [kJ/mol]
  Total SAPT2                     -81.76524230 [mEh]     -51.30846417 [kcal/mol]    -214.67461407 [kJ/mol]
  Total SAPT2+                    -85.54699426 [mEh]     -53.68154935 [kcal/mol]    -224.60360249 [kJ/mol]
  Total SAPT2+(3)                 -84.42960256 [mEh]     -52.98037548 [kcal/mol]    -221.66989099 [kJ/mol]
  Total SAPT2+dMP2                -82.16180044 [mEh]     -51.55730816 [kcal/mol]    -215.71577734 [kJ/mol]
  Total SAPT2+(3)dMP2             -81.04440874 [mEh]     -50.85613428 [kcal/mol]    -212.78206584 [kJ/mol]

  Special recipe for scaled SAPT0 (see Manual):
    Electrostatics sSAPT0        -107.94614361 [mEh]     -67.73722777 [kcal/mol]    -283.41256100 [kJ/mol]
    Exchange sSAPT0               101.99167620 [mEh]      64.00074306 [kcal/mol]     267.77910897 [kJ/mol]
    Induction sSAPT0              -50.48898078 [mEh]     -31.68231376 [kcal/mol]    -132.55880077 [kJ/mol]
    Dispersion sSAPT0             -38.88817741 [mEh]     -24.40269974 [kcal/mol]    -102.10089571 [kJ/mol]
  Total sSAPT0                    -95.33162559 [mEh]     -59.82149821 [kcal/mol]    -250.29314852 [kJ/mol]
  --------------------------------------------------------------------------------------------------------

*** Psi4 exiting successfully. Buy a developer a beer!
