                               Psi4 1.3.2 release

  ==> Input File <==

--------------------------------------------------------------------------
memory 100 GB

molecule dimer {
0 1
P      4.80300000    6.25000000    4.59200000
O      5.15000000    5.02400000    5.29600000
O      3.84500000    7.17000000    5.46200000
H      3.56700000    7.98200000    4.89400000
O      5.97900000    7.19000000    4.07900000
H      6.76200000    7.15700000    4.75200000
O      3.94900000    6.10200000    3.24900000
H      4.56300000    5.72800000    2.51800000
--
0 1
P      8.49300000    5.73300000    6.87300000
O      8.14300000    6.96300000    6.17600000
O      7.32000000    4.79200000    7.38700000
H      6.53400000    4.82600000    6.71600000
O      9.44700000    4.81800000    5.99400000
H      9.73200000    4.00600000    6.55800000
O      9.35300000    5.87700000    8.21200000
H      8.73900000    6.23300000    8.95200000
}

set {
    scf_type DF
    freeze_core True
    basis aug-cc-pVTZ
}

energy('sapt2+(3)dmp2')
--------------------------------------------------------------------------

  //              Dimer HF             //
    Molecular point group: c1
  Charge       = 0
  Multiplicity = 1
  Basis Set: AUG-CC-PVTZ
    Blend: AUG-CC-PVTZ
  Basis Set: (AUG-CC-PVTZ AUX)
    Blend: AUG-CC-PVTZ-JKFIT
  @DF-RHF Final Energy: -1284.43711814655239
    Total Energy =                      -1284.4371181465523932
  Basis Set: (AUG-CC-PVTZ AUX)
    Blend: AUG-CC-PVTZ-RI
	 Reference Energy          =   -1284.4371181465523932 [Eh]
	 Singles Energy            =      -0.0000000000000000 [Eh]
	 Same-Spin Energy          =      -0.5968921350270118 [Eh]
	 Opposite-Spin Energy      =      -1.6847927589583982 [Eh]
	 Correlation Energy        =      -2.2816848939854100 [Eh]
	 Total Energy              =   -1286.7188030405377503 [Eh]
	 SCS Total Energy          =   -1286.6578335023114050 [Eh]
  //            Monomer A HF           //
    Molecular point group: c1
  Multiplicity = 1
  Basis Set: AUG-CC-PVTZ
    Blend: AUG-CC-PVTZ
  Basis Set: (AUG-CC-PVTZ AUX)
    Blend: AUG-CC-PVTZ-JKFIT
  @DF-RHF Final Energy:  -642.20146525685664
    Total Energy =                       -642.2014652568566362
  Basis Set: (AUG-CC-PVTZ AUX)
	 Singles Energy            =      -0.0000000000000000 [Eh]
	 Same-Spin Energy          =      -0.2972172495348293 [Eh]
	 Opposite-Spin Energy      =      -0.8427080601730803 [Eh]
	 Correlation Energy        =      -1.1399253097079096 [Eh]
	 Total Energy              =    -643.3413905665645416 [Eh]
	 SCS Total Energy          =    -643.3117873455759081 [Eh]
  //            Monomer B HF           //
    Molecular point group: c1

    Geometry (in Angstrom), charge = 0, multiplicity = 1:

       Center              X                  Y                   Z               Mass
    ------------   -----------------  -----------------  -----------------  -----------------
      Gh(P)          -1.845209540496     0.258260930204    -1.140066154358    30.973761998420
      Gh(O)          -1.498209540496    -0.967739069796    -0.436066154358    15.994914619570
      Gh(O)          -2.803209540496     1.178260930204    -0.270066154358    15.994914619570
      Gh(H)          -3.081209540496     1.990260930204    -0.838066154358     1.007825032230
      Gh(O)          -0.669209540496     1.198260930204    -1.653066154358    15.994914619570
      Gh(H)           0.113790459504     1.165260930204    -0.980066154358     1.007825032230
      Gh(O)          -2.699209540496     0.110260930204    -2.483066154358    15.994914619570
      Gh(H)          -2.085209540496    -0.263739069796    -3.214066154358     1.007825032230
         P            1.844790459504    -0.258739069796     1.140933845642    30.973761998420
         O            1.494790459504     0.971260930204     0.443933845642    15.994914619570
         O            0.671790459504    -1.199739069796     1.654933845642    15.994914619570
         H           -0.114209540496    -1.165739069796     0.983933845642     1.007825032230
         O            2.798790459504    -1.173739069796     0.261933845642    15.994914619570
         H            3.083790459504    -1.985739069796     0.825933845642     1.007825032230
         O            2.704790459504    -0.114739069796     2.479933845642    15.994914619570
         H            2.090790459504     0.241260930204     3.219933845642     1.007825032230

  Charge       = 0
  Multiplicity = 1
  Basis Set: AUG-CC-PVTZ
    Blend: AUG-CC-PVTZ
  Basis Set: (AUG-CC-PVTZ AUX)
    Blend: AUG-CC-PVTZ-JKFIT

    Orbital Energies [Eh]
    ---------------------

    Doubly Occupied:

       1A    -80.109121     2A    -20.630587     3A    -20.618614
       4A    -20.615368     5A    -20.515100     6A     -7.627504
       7A     -5.525785     8A     -5.525717     9A     -5.524428
      10A     -1.466899    11A     -1.390822    12A     -1.381387
      13A     -1.305700    14A     -0.848031    15A     -0.766134
      16A     -0.745855    17A     -0.673231    18A     -0.667115
      19A     -0.616003    20A     -0.592470    21A     -0.582671
      22A     -0.557679    23A     -0.545813    24A     -0.478190
      25A     -0.473406

  @DF-RHF Final Energy:  -642.20132110765394

   => Energetics <=

    Nuclear Repulsion Energy =            280.5681799818386253
    One-Electron Energy =               -1445.9717355530087843
    Two-Electron Energy =                 523.2022344635163336
    Total Energy =                       -642.2013211076539392

  Dipole Moment: [D]
     X:    -1.3158      Y:    -3.3605      Z:     2.5230     Total:     4.4034

  Basis Set: (AUG-CC-PVTZ AUX)
    Blend: AUG-CC-PVTZ-RI
	 Reference Energy          =    -642.2013211076539392 [Eh]
	 Singles Energy            =      -0.0000000000000000 [Eh]
	 Same-Spin Energy          =      -0.2972195482393014 [Eh]
	 Opposite-Spin Energy      =      -0.8426896817442544 [Eh]
	 Correlation Energy        =      -1.1399092299835558 [Eh]
	 Total Energy              =    -643.3412303376375121 [Eh]

	 ================> DF-SCS-MP2 Energies <==================
	-----------------------------------------------------------
	 SCS Same-Spin Scale       =       0.3333333333333333 [-]
	 SCS Opposite-Spin Scale   =       1.2000000000000000 [-]
	 SCS Same-Spin Energy      =      -0.0990731827464338 [Eh]
	 SCS Opposite-Spin Energy  =      -1.0112276180931052 [Eh]
	 SCS Correlation Energy    =      -1.1103008008395390 [Eh]
	 SCS Total Energy          =    -643.3116219084935210 [Eh]
	-----------------------------------------------------------

    SAPT Results
  --------------------------------------------------------------------------------------------------------
    Electrostatics                -35.46820548 [mEh]     -22.25663496 [kcal/mol]     -93.12176066 [kJ/mol]
      Elst10,r                    -38.73167756 [mEh]     -24.30449460 [kcal/mol]    -101.69000541 [kJ/mol]
      Elst12,r                      4.24515846 [mEh]       2.66387715 [kcal/mol]      11.14566201 [kJ/mol]
      Elst13,r                     -0.98168639 [mEh]      -0.61601751 [kcal/mol]      -2.57741726 [kJ/mol]

    Exchange                       20.20068123 [mEh]      12.67611885 [kcal/mol]      53.03688127 [kJ/mol]
      Exch10                       17.04297181 [mEh]      10.69462627 [kcal/mol]      44.74631631 [kJ/mol]
      Exch10(S^2)                  16.94824932 [mEh]      10.63518701 [kcal/mol]      44.49762246 [kJ/mol]
      Exch11(S^2)                   0.19448745 [mEh]       0.12204272 [kcal/mol]       0.51062674 [kJ/mol]
      Exch12(S^2)                   2.96322197 [mEh]       1.85944986 [kcal/mol]       7.77993822 [kJ/mol]

    Induction                     -13.79597080 [mEh]      -8.65710238 [kcal/mol]     -36.22131634 [kJ/mol]
      Ind20,r                     -12.75784708 [mEh]      -8.00566991 [kcal/mol]     -33.49572290 [kJ/mol]
      Ind22                        -1.35698503 [mEh]      -0.85152096 [kcal/mol]      -3.56276369 [kJ/mol]
      Exch-Ind20,r                  4.47219089 [mEh]       2.80634215 [kcal/mol]      11.74173557 [kJ/mol]
      Exch-Ind22                    0.47568340 [mEh]       0.29849584 [kcal/mol]       1.24890659 [kJ/mol]
      delta HF,r (2)               -4.35742010 [mEh]      -2.73432240 [kcal/mol]     -11.44040491 [kJ/mol]
      delta MP2,r (2)              -0.27159288 [mEh]      -0.17042711 [kcal/mol]      -0.71306701 [kJ/mol]

    Dispersion                     -9.45278990 [mEh]      -5.93171521 [kcal/mol]     -24.81829646 [kJ/mol]
      Disp20                       -9.38421542 [mEh]      -5.88868408 [kcal/mol]     -24.63825419 [kJ/mol]
      Disp30                        0.29493296 [mEh]       0.18507322 [kcal/mol]       0.77434637 [kJ/mol]
      Disp21                        0.71167324 [mEh]       0.44658170 [kcal/mol]       1.86849783 [kJ/mol]
      Disp22 (SDQ)                 -0.34113212 [mEh]      -0.21406364 [kcal/mol]      -0.89564226 [kJ/mol]
      Disp22 (T)                   -1.78991210 [mEh]      -1.12318680 [kcal/mol]      -4.69941358 [kJ/mol]
      Est. Disp22 (T)              -2.01793629 [mEh]      -1.26627414 [kcal/mol]      -5.29809101 [kJ/mol]
      Exch-Disp20                   1.28388774 [mEh]       0.80565172 [kcal/mol]       3.37084680 [kJ/mol]

  Total HF                        -34.33178204 [mEh]     -21.54351848 [kcal/mol]     -90.13808133 [kJ/mol]
  Total SAPT0                     -42.43210972 [mEh]     -26.62655084 [kcal/mol]    -111.40548872 [kJ/mol]
  Total SAPT2                     -35.91054346 [mEh]     -22.53420623 [kcal/mol]     -94.28311885 [kJ/mol]
  Total SAPT2+                    -37.55793863 [mEh]     -23.56796231 [kcal/mol]     -98.60835430 [kJ/mol]
  Total SAPT2+(3)                 -38.24469206 [mEh]     -23.99890659 [kcal/mol]    -100.41142518 [kJ/mol]
  Total SAPT2+dMP2                -37.82953151 [mEh]     -23.73838941 [kcal/mol]     -99.32142130 [kJ/mol]
  Total SAPT2+(3)dMP2             -38.51628494 [mEh]     -24.16933370 [kcal/mol]    -101.12449219 [kJ/mol]

  Special recipe for scaled SAPT0 (see Manual):
    Electrostatics sSAPT0         -38.73167756 [mEh]     -24.30449460 [kcal/mol]    -101.69000541 [kJ/mol]
    Exchange sSAPT0                17.04297181 [mEh]      10.69462627 [kcal/mol]      44.74631631 [kJ/mol]
    Induction sSAPT0              -12.56767222 [mEh]      -7.88633338 [kcal/mol]     -32.99641886 [kJ/mol]
    Dispersion sSAPT0              -8.07868049 [mEh]      -5.06944854 [kcal/mol]     -21.21057270 [kJ/mol]
  Total sSAPT0                    -42.33505845 [mEh]     -26.56565025 [kcal/mol]    -111.15068066 [kJ/mol]
  --------------------------------------------------------------------------------------------------------

*** Psi4 exiting successfully. Buy a developer a beer!
