                               Psi4 1.3.2 release

  ==> Input File <==

--------------------------------------------------------------------------
memory 100 GB

molecule dimer {
0 1
C      8.94864300   10.62571600    5.06888500
C     10.27405700   10.12199400    4.84711700
C     11.20554700   10.87709100    4.12809400
C     10.79632200   12.10916000    3.64940700
C      9.49048800   12.59726800    3.87142500
C      8.54836700   11.87092100    4.57992300
H     12.21023400   10.49357200    3.96152300
H     11.49352500   12.72731300    3.08445500
H      9.22469800   13.57553900    3.46991800
H      7.54597100   12.24948000    4.74851600
H      7.34495200    9.68918500    6.12716100
C      9.20139000    8.59402800    6.01179400
H      8.94795600    7.69212700    6.56464300
N      8.28500300    9.63992400    5.80937300
N     10.38007100    8.86279400    5.44842400
--
0 1
P     11.92638200    5.96067200    6.98705400
O     10.48878200    5.76144500    7.09897900
O     12.82479000    4.66314500    6.70995400
H     12.82936700    4.48745700    5.70090300
O     12.47214300    6.94169300    5.86557800
H     11.75656200    7.69562100    5.66718900
O     12.54388900    6.46966600    8.36200400
H     13.56087100    6.56420400    8.24768800
}

set {
    scf_type DF
    freeze_core True
    basis aug-cc-pVTZ
}

energy('sapt2+(3)dmp2')
--------------------------------------------------------------------------

  //              Dimer HF             //
    Molecular point group: c1
  Charge       = 0
  Multiplicity = 1
  Basis Set: AUG-CC-PVTZ
    Blend: AUG-CC-PVTZ
  Basis Set: (AUG-CC-PVTZ AUX)
    Blend: AUG-CC-PVTZ-JKFIT
  @DF-RHF Final Energy: -1019.81908163722574
    Total Energy =                      -1019.8190816372257359
  Basis Set: (AUG-CC-PVTZ AUX)
    Blend: AUG-CC-PVTZ-RI
	 Reference Energy          =   -1019.8190816372257359 [Eh]
	 Singles Energy            =      -0.0000000000000000 [Eh]
	 Same-Spin Energy          =      -0.6985215588509806 [Eh]
	 Opposite-Spin Energy      =      -1.9722346366925416 [Eh]
	 Correlation Energy        =      -2.6707561955435222 [Eh]
	 Total Energy              =   -1022.4898378327692399 [Eh]
	 SCS Total Energy          =   -1022.4186037208737616 [Eh]
  //            Monomer A HF           //
    Molecular point group: c1
  Multiplicity = 1
  Basis Set: AUG-CC-PVTZ
    Blend: AUG-CC-PVTZ
  Basis Set: (AUG-CC-PVTZ AUX)
    Blend: AUG-CC-PVTZ-JKFIT
  @DF-RHF Final Energy:  -377.59516486445972
    Total Energy =                       -377.5951648644597753
  Basis Set: (AUG-CC-PVTZ AUX)
	 Singles Energy            =      -0.0000000000000000 [Eh]
	 Same-Spin Energy          =      -0.3975442390254093 [Eh]
	 Opposite-Spin Energy      =      -1.1273058817804988 [Eh]
	 Correlation Energy        =      -1.5248501208059082 [Eh]
	 Total Energy              =    -379.1200149852656409 [Eh]
	 SCS Total Energy          =    -379.0804466689381229 [Eh]
  //            Monomer B HF           //
    Molecular point group: c1

    Geometry (in Angstrom), charge = 0, multiplicity = 1:

       Center              X                  Y                   Z               Mass
    ------------   -----------------  -----------------  -----------------  -----------------
      Gh(C)          -1.795401330492     2.143706490051    -0.746625810717    12.000000000000
      Gh(C)          -0.469987330492     1.639984490051    -0.968393810717    12.000000000000
      Gh(C)           0.461502669508     2.395081490051    -1.687416810717    12.000000000000
      Gh(C)           0.052277669508     3.627150490051    -2.166103810717    12.000000000000
      Gh(C)          -1.253556330492     4.115258490051    -1.944085810717    12.000000000000
      Gh(C)          -2.195677330492     3.388911490051    -1.235587810717    12.000000000000
      Gh(H)           1.466189669508     2.011562490051    -1.853987810717     1.007825032230
      Gh(H)           0.749480669508     4.245303490051    -2.731055810717     1.007825032230
      Gh(H)          -1.519346330492     5.093529490051    -2.345592810717     1.007825032230
      Gh(H)          -3.198073330492     3.767470490051    -1.066994810717     1.007825032230
      Gh(H)          -3.399092330492     1.207175490051     0.311650189283     1.007825032230
      Gh(C)          -1.542654330492     0.112018490051     0.196283189283    12.000000000000
      Gh(H)          -1.796088330492    -0.789882509949     0.749132189283     1.007825032230
      Gh(N)          -2.459041330492     1.157914490051    -0.006137810717    14.003074004430
      Gh(N)          -0.363973330492     0.380784490051    -0.367086810717    14.003074004430
         P            1.182337669508    -2.521337509949     1.171543189283    30.973761998420
         O           -0.255262330492    -2.720564509949     1.283468189283    15.994914619570
         O            2.080745669508    -3.818864509949     0.894443189283    15.994914619570
         H            2.085322669508    -3.994552509949    -0.114607810717     1.007825032230
         O            1.728098669508    -1.540316509949     0.050067189283    15.994914619570
         H            1.012517669508    -0.786388509949    -0.148321810717     1.007825032230
         O            1.799844669508    -2.012343509949     2.546493189283    15.994914619570
         H            2.816826669508    -1.917805509949     2.432177189283     1.007825032230

  Charge       = 0
  Multiplicity = 1
  Basis Set: AUG-CC-PVTZ
    Blend: AUG-CC-PVTZ
  Basis Set: (AUG-CC-PVTZ AUX)
    Blend: AUG-CC-PVTZ-JKFIT

    Orbital Energies [Eh]
    ---------------------

    Doubly Occupied:

       1A    -80.109262     2A    -20.633900     3A    -20.618110
       4A    -20.613447     5A    -20.514579     6A     -7.627540
       7A     -5.525831     8A     -5.525714     9A     -5.524485
      10A     -1.465202    11A     -1.388401    12A     -1.379577
      13A     -1.305444    14A     -0.845355    15A     -0.764698
      16A     -0.743298    17A     -0.673633    18A     -0.665691
      19A     -0.613492    20A     -0.596907    21A     -0.578428
      22A     -0.554751    23A     -0.545982    24A     -0.477923
      25A     -0.473063

  @DF-RHF Final Energy:  -642.19720289564111

   => Energetics <=

    Nuclear Repulsion Energy =            280.2518018868859144
    One-Electron Energy =               -1445.3685768501707116
    Two-Electron Energy =                 522.9195720676436849
    Total Energy =                       -642.1972028956411123

  Dipole Moment: [D]
     X:     3.4889      Y:     1.7227      Z:    -2.6298     Total:     4.6964

  Basis Set: (AUG-CC-PVTZ AUX)
    Blend: AUG-CC-PVTZ-RI
	 Reference Energy          =    -642.1972028956411123 [Eh]
	 Singles Energy            =      -0.0000000000000000 [Eh]
	 Same-Spin Energy          =      -0.2975341037376406 [Eh]
	 Opposite-Spin Energy      =      -0.8435945590383397 [Eh]
	 Correlation Energy        =      -1.1411286627759802 [Eh]
	 Total Energy              =    -643.3383315584170532 [Eh]

	 ================> DF-SCS-MP2 Energies <==================
	-----------------------------------------------------------
	 SCS Same-Spin Scale       =       0.3333333333333333 [-]
	 SCS Opposite-Spin Scale   =       1.2000000000000000 [-]
	 SCS Same-Spin Energy      =      -0.0991780345792135 [Eh]
	 SCS Opposite-Spin Energy  =      -1.0123134708460075 [Eh]
	 SCS Correlation Energy    =      -1.1114915054252210 [Eh]
	 SCS Total Energy          =    -643.3086944010663046 [Eh]
	-----------------------------------------------------------

    SAPT Results
  --------------------------------------------------------------------------------------------------------
    Electrostatics                -34.97768436 [mEh]     -21.94882831 [kcal/mol]     -91.83389764 [kJ/mol]
      Elst10,r                    -36.97741853 [mEh]     -23.20368044 [kcal/mol]     -97.08419898 [kJ/mol]
      Elst12,r                      1.94477424 [mEh]       1.22036426 [kcal/mol]       5.10600408 [kJ/mol]
      Elst13,r                      0.05495992 [mEh]       0.03448787 [kcal/mol]       0.14429726 [kJ/mol]

    Exchange                       30.60631028 [mEh]      19.20574966 [kcal/mol]      80.35685657 [kJ/mol]
      Exch10                       27.02626970 [mEh]      16.95924028 [kcal/mol]      70.95746133 [kJ/mol]
      Exch10(S^2)                  26.63495109 [mEh]      16.71368414 [kcal/mol]      69.93005446 [kJ/mol]
      Exch11(S^2)                   0.46812574 [mEh]       0.29375333 [kcal/mol]       1.22906395 [kJ/mol]
      Exch12(S^2)                   3.11191484 [mEh]       1.95275604 [kcal/mol]       8.17033129 [kJ/mol]

    Induction                     -17.03241786 [mEh]     -10.68800357 [kcal/mol]     -44.71860693 [kJ/mol]
      Ind20,r                     -17.83111696 [mEh]     -11.18919482 [kcal/mol]     -46.81559113 [kJ/mol]
      Ind22                        -1.56164717 [mEh]      -0.97994839 [kcal/mol]      -4.10010407 [kJ/mol]
      Exch-Ind20,r                  7.84166679 [mEh]       4.92072020 [kcal/mol]      20.58829333 [kJ/mol]
      Exch-Ind22                    0.68677227 [mEh]       0.43095611 [kcal/mol]       1.80312035 [kJ/mol]
      delta HF,r (2)               -6.77327813 [mEh]      -4.25029619 [kcal/mol]     -17.78323928 [kJ/mol]
      delta MP2,r (2)               0.60518533 [mEh]       0.37975953 [kcal/mol]       1.58891386 [kJ/mol]

    Dispersion                    -11.10006623 [mEh]      -6.96539672 [kcal/mol]     -29.14321987 [kJ/mol]
      Disp20                      -11.97195454 [mEh]      -7.51251490 [kcal/mol]     -31.43236232 [kJ/mol]
      Disp30                        0.43425896 [mEh]       0.27250161 [kcal/mol]       1.14014675 [kJ/mol]
      Disp21                        1.31162332 [mEh]       0.82305606 [kcal/mol]       3.44366654 [kJ/mol]
      Disp22 (SDQ)                 -0.22953958 [mEh]      -0.14403826 [kcal/mol]      -0.60265607 [kJ/mol]
      Disp22 (T)                   -2.30120503 [mEh]      -1.44402795 [kcal/mol]      -6.04181296 [kJ/mol]
      Est. Disp22 (T)              -2.58387171 [mEh]      -1.62140398 [kcal/mol]      -6.78395424 [kJ/mol]
      Exch-Disp20                   1.93941733 [mEh]       1.21700275 [kcal/mol]       5.09193949 [kJ/mol]

  Total HF                        -26.71387712 [mEh]     -16.76321098 [kcal/mol]     -70.13727473 [kJ/mol]
  Total SAPT0                     -36.74641434 [mEh]     -23.05872313 [kcal/mol]     -96.47769757 [kJ/mol]
  Total SAPT2                     -32.09647441 [mEh]     -20.14084177 [kcal/mol]     -84.26928197 [kJ/mol]
  Total SAPT2+                    -33.59826239 [mEh]     -21.08322795 [kcal/mol]     -88.21222574 [kJ/mol]
  Total SAPT2+(3)                 -33.10904350 [mEh]     -20.77623846 [kcal/mol]     -86.92778173 [kJ/mol]
  Total SAPT2+dMP2                -32.99307706 [mEh]     -20.70346842 [kcal/mol]     -86.62331188 [kJ/mol]
  Total SAPT2+(3)dMP2             -32.50385817 [mEh]     -20.39647894 [kcal/mol]     -85.33886787 [kJ/mol]

  Special recipe for scaled SAPT0 (see Manual):
    Electrostatics sSAPT0         -36.97741853 [mEh]     -23.20368044 [kcal/mol]     -97.08419898 [kJ/mol]
    Exchange sSAPT0                27.02626970 [mEh]      16.95924028 [kcal/mol]      70.95746133 [kJ/mol]
    Induction sSAPT0              -16.41199804 [mEh]     -10.29868425 [kcal/mol]     -43.08969491 [kJ/mol]
    Dispersion sSAPT0              -9.94579388 [mEh]      -6.24107989 [kcal/mol]     -26.11267824 [kJ/mol]
  Total sSAPT0                    -36.30894075 [mEh]     -22.78420430 [kcal/mol]     -95.32911080 [kJ/mol]
  --------------------------------------------------------------------------------------------------------

*** Psi4 exiting successfully. Buy a developer a beer!
