 Gaussian 16, Revision A.03,
 Gaussian 16:  ES64L-G16RevA.03 25-Dec-2016

 -------------------------------------------------------
 #p B3LYP/6-311+G(2d,p) opt freq scrf(smd,solvent=water)
 -------------------------------------------------------

 -------------------
 Title Card Required
 -------------------
 Symbolic Z-matrix:
 Charge =  0 Multiplicity = 1

 SCF Done:  E(RB3LYP) =  -1125.48663578     A.U. after   12 cycles
 SCF Done:  E(RB3LYP) =  -1125.50759499     A.U. after   13 cycles
 SCF Done:  E(RB3LYP) =  -1125.51394884     A.U. after   13 cycles
 SCF Done:  E(RB3LYP) =  -1125.51859624     A.U. after   11 cycles
 SCF Done:  E(RB3LYP) =  -1125.51505755     A.U. after   12 cycles
 SCF Done:  E(RB3LYP) =  -1125.52238544     A.U. after   11 cycles
 SCF Done:  E(RB3LYP) =  -1125.52308487     A.U. after   10 cycles
 SCF Done:  E(RB3LYP) =  -1125.52368192     A.U. after   10 cycles
 SCF Done:  E(RB3LYP) =  -1125.52413291     A.U. after   11 cycles
 SCF Done:  E(RB3LYP) =  -1125.52432813     A.U. after   10 cycles
 SCF Done:  E(RB3LYP) =  -1125.52461810     A.U. after    7 cycles
 SCF Done:  E(RB3LYP) =  -1125.52461956     A.U. after    8 cycles
 SCF Done:  E(RB3LYP) =  -1125.52461984     A.U. after    7 cycles
 SCF Done:  E(RB3LYP) =  -1125.52461948     A.U. after    7 cycles
 SCF Done:  E(RB3LYP) =  -1125.52462006     A.U. after    7 cycles
 SCF Done:  E(RB3LYP) =  -1125.52462036     A.U. after    7 cycles
 SCF Done:  E(RB3LYP) =  -1125.52462015     A.U. after    6 cycles
 SCF Done:  E(RB3LYP) =  -1125.52462020     A.U. after    6 cycles
 SCF Done:  E(RB3LYP) =  -1125.52462027     A.U. after    6 cycles
 Optimization completed.
    -- Stationary point found.
 Normal termination of Gaussian 16 at Mon Dec 12 01:36:05 2022.

 ----------------------------------------------------------------------
 #P Geom=AllCheck Guess=TCheck SCRF=Check GenChk RB3LYP/6-311+G(2d,p) F
 req
 ----------------------------------------------------------------------

 Structure from the checkpoint file:  "/data0/home/software/g16/scratch/Gau-1598497.chk"
 -------------------
 Title Card Required
 -------------------
 Charge =  0 Multiplicity = 1

                         Standard orientation:
 ---------------------------------------------------------------------
 Center     Atomic      Atomic             Coordinates (Angstroms)
 Number     Number       Type             X           Y           Z
 ---------------------------------------------------------------------
      1          6           0       -3.963302   -1.750442   -1.139879
      2          1           0       -4.796179   -2.394091   -0.866135
      3          1           0       -4.160642   -1.262023   -2.091284
      4          1           0       -3.043083   -2.327290   -1.193641
      5          6           0       -5.084831    0.086987    0.004049
      6          1           0       -5.896199   -0.609779    0.201177
      7          1           0       -5.013689    0.806654    0.813824
      8          1           0       -5.246603    0.594100   -0.944611
      9          6           0       -3.545414   -1.370694    1.231838
     10          1           0       -3.513387   -0.625768    2.021302
     11          1           0       -4.355890   -2.071151    1.419584
     12          1           0       -2.597559   -1.899988    1.167052
     13          6           0       -2.642119    0.194428   -0.489616
     14          1           0       -2.897596    0.570602   -1.480094
     15          1           0       -1.788950   -0.475968   -0.583664
     16          6           0       -2.327415    1.349369    0.451376
     17          1           0       -2.116402    0.989744    1.458314
     18          1           0       -3.177602    2.029982    0.512793
     19          6           0       -1.122490    2.140411   -0.065738
     20          1           0       -1.015754    3.051932    0.531681
     21          1           0       -1.277126    2.464994   -1.096436
     22          7           0       -3.808203   -0.695670   -0.082371
     23          6           0        0.221457    1.434205    0.017131
     24          8           0        0.382046    0.536960    0.896686
     25          8           0        1.124922    1.816614   -0.786040
     26         15           0        3.641692   -0.515738    0.052748
     27          8           0        5.034955   -0.762430    0.505896
     28          8           0        3.476298    0.906856   -0.600951
     29          1           0        2.493557    1.250451   -0.671504
     30          8           0        3.142167   -1.597556   -1.033926
     31          1           0        3.756059   -1.691722   -1.778711
     32          8           0        2.564397   -0.669438    1.179222
     33          1           0        1.665489   -0.148563    1.023688
 ---------------------------------------------------------------------

 SCF Done:  E(RB3LYP) =  -1125.52462027     A.U. after    1 cycles

 The electronic state is 1-A.
 Alpha  occ. eigenvalues --  -77.17960 -19.15200 -19.13093 -19.13058 -19.10741
 Alpha  occ. eigenvalues --  -19.10535 -19.08817 -14.43600 -10.29182 -10.21655
 Alpha  occ. eigenvalues --  -10.20892 -10.20859 -10.20835 -10.17427 -10.17392
 Alpha  occ. eigenvalues --   -6.65743  -4.82030  -4.82020  -4.81806  -1.09167
 Alpha  occ. eigenvalues --   -1.06917  -1.02279  -1.01217  -1.01151  -0.97656
 Alpha  occ. eigenvalues --   -0.96821  -0.80601  -0.74187  -0.74137  -0.72874
 Alpha  occ. eigenvalues --   -0.65351  -0.62854  -0.60298  -0.56984  -0.56073
 Alpha  occ. eigenvalues --   -0.52522  -0.52166  -0.51665  -0.50268  -0.48273
 Alpha  occ. eigenvalues --   -0.46208  -0.45596  -0.45493  -0.44506  -0.43993
 Alpha  occ. eigenvalues --   -0.43187  -0.41722  -0.41133  -0.40361  -0.39633
 Alpha  occ. eigenvalues --   -0.39530  -0.39453  -0.39180  -0.38102  -0.37118
 Alpha  occ. eigenvalues --   -0.36786  -0.36114  -0.35361  -0.34714  -0.33210
 Alpha  occ. eigenvalues --   -0.31958  -0.30465  -0.29878  -0.28640  -0.28033
 Alpha virt. eigenvalues --   -0.00239   0.00546   0.00992   0.02386   0.02694
 Alpha virt. eigenvalues --    0.02952   0.03819   0.03947   0.04413   0.04829
 Alpha virt. eigenvalues --    0.05246   0.05374   0.06082   0.06535   0.07387

 Mulliken charges:
               1
     1  C   -0.301628
     2  H    0.190074
     3  H    0.193265
     4  H    0.193507
     5  C   -0.282237
     6  H    0.188705
     7  H    0.191386
     8  H    0.194653
     9  C   -0.279411
    10  H    0.192391
    11  H    0.190360
    12  H    0.198684
    13  C   -0.134143
    14  H    0.179148
    15  H    0.185887
    16  C   -0.174453
    17  H    0.147236
    18  H    0.145081
    19  C   -0.498447
    20  H    0.173030
    21  H    0.162546
    22  N   -0.053136
    23  C    0.634682
    24  O   -0.783841
    25  O   -0.771737
    26  P    1.566068
    27  O   -0.896437
    28  O   -0.816904
    29  H    0.559337
    30  O   -0.604372
    31  H    0.348480
    32  O   -0.839619
    33  H    0.601842
 Sum of Mulliken charges =  -0.00000

 Dipole moment (field-independent basis, Debye):
    X=            -34.0000    Y=             -3.1673    Z=             -4.0122  Tot=             34.3821
 Quadrupole moment (field-independent basis, Debye-Ang):
   XX=            -91.0660   YY=            -96.1713   ZZ=            -96.2052
   XY=             11.4409   XZ=            -13.0530   YZ=              9.3820

  Exact polarizability: 202.279  -4.431 184.242  -3.278  -8.024 179.372
 Approx polarizability: 193.162  -3.250 181.153  -4.201  -9.773 181.179

                      1                      2                      3
                      A                      A                      A
 Frequencies --     25.4162                31.3428                38.7258
 Red. masses --      5.5917                 2.9347                 5.8642
 Frc consts  --      0.0021                 0.0017                 0.0052
 IR Inten    --      8.6585                 0.2937                 1.2551

                      4                      5                      6
                      A                      A                      A
 Frequencies --     59.1986                60.4133                88.9403
 Red. masses --     11.4168                 6.8636                 4.6566
 Frc consts  --      0.0236                 0.0148                 0.0217
 IR Inten    --      5.1024                 4.1971                 8.0401

                      7                      8                      9
                      A                      A                      A
 Frequencies --    111.6105               127.4167               139.3569
 Red. masses --      4.0503                 2.9396                 5.7171
 Frc consts  --      0.0297                 0.0281                 0.0654
 IR Inten    --      2.1422                 1.9127                 3.9442

                     10                     11                     12
                      A                      A                      A
 Frequencies --    180.8484               195.8891               210.6758
 Red. masses --      2.5992                 1.5391                 2.3474
 Frc consts  --      0.0501                 0.0348                 0.0614
 IR Inten    --    136.7942                77.5202                 7.8072

                     13                     14                     15
                      A                      A                      A
 Frequencies --    248.9659               272.6165               292.4522
 Red. masses --      1.1242                 2.2159                 1.1898
 Frc consts  --      0.0411                 0.0970                 0.0600
 IR Inten    --      5.8231                48.7481                14.6401

                     16                     17                     18
                      A                      A                      A
 Frequencies --    304.1084               336.0439               351.0776
 Red. masses --      1.1300                 8.7550                 3.5755
 Frc consts  --      0.0616                 0.5825                 0.2597
 IR Inten    --      5.0108                 7.7127                 2.5304

                     19                     20                     21
                      A                      A                      A
 Frequencies --    368.1457               375.3551               378.6413
 Red. masses --      2.5529                 3.0608                 3.5668
 Frc consts  --      0.2039                 0.2541                 0.3013
 IR Inten    --      2.0283                87.8602               138.7943

                     22                     23                     24
                      A                      A                      A
 Frequencies --    428.5277               454.9583               459.9059
 Red. masses --      8.2235                 2.4533                 2.4087
 Frc consts  --      0.8897                 0.2992                 0.3002
 IR Inten    --     58.4893                 1.5630                 0.0772

                     25                     26                     27
                      A                      A                      A
 Frequencies --    463.7893               501.3538               506.8441
 Red. masses --     14.4025                 5.5977                 3.6487
 Frc consts  --      1.8253                 0.8290                 0.5523
 IR Inten    --    137.0250                 1.8288                14.6261

                     28                     29                     30
                      A                      A                      A
 Frequencies --    568.0920               607.5150               671.5420
 Red. masses --      3.4161                 3.2535                 2.7052
 Frc consts  --      0.6496                 0.7075                 0.7188
 IR Inten    --     15.7579                81.4529                43.2800

                     31                     32                     33
                      A                      A                      A
 Frequencies --    762.1716               792.8624               806.5415
 Red. masses --      3.7003                 1.5283                13.8381
 Frc consts  --      1.2665                 0.5661                 5.3037
 IR Inten    --      1.5997                45.0972               245.3140

                     34                     35                     36
                      A                      A                      A
 Frequencies --    884.2960               889.9703               909.3506
 Red. masses --      2.7832                 3.9962                 9.2087
 Frc consts  --      1.2823                 1.8649                 4.4866
 IR Inten    --     20.2807                30.6705               311.8982

                     37                     38                     39
                      A                      A                      A
 Frequencies --    933.3813               956.1716               962.7019
 Red. masses --      2.6210                 2.9683                 7.0945
 Frc consts  --      1.3453                 1.5989                 3.8740
 IR Inten    --     62.8178                75.4356               283.7358

                     40                     41                     42
                      A                      A                      A
 Frequencies --    971.5859               998.7504              1029.8494
 Red. masses --      2.8071                 1.0540                 1.4420
 Frc consts  --      1.5613                 0.6194                 0.9011
 IR Inten    --     38.7308                54.0505               148.5909

                     43                     44                     45
                      A                      A                      A
 Frequencies --   1036.3352              1075.8103              1079.7791
 Red. masses --      1.3362                 2.1566                 1.2781
 Frc consts  --      0.8455                 1.4706                 0.8780
 IR Inten    --    187.3165                20.1737                89.5591

                     46                     47                     48
                      A                      A                      A
 Frequencies --   1084.7347              1088.7993              1154.1475
 Red. masses --      1.5641                 1.3841                 1.3174
 Frc consts  --      1.0843                 0.9667                 1.0339
 IR Inten    --     32.5939                 9.5804                11.5033

                     49                     50                     51
                      A                      A                      A
 Frequencies --   1155.2680              1192.5470              1213.2176
 Red. masses --      1.3625                13.1093                 1.2713
 Frc consts  --      1.0714                10.9845                 1.1025
 IR Inten    --     14.3584               814.3072                13.9061

                     52                     53                     54
                      A                      A                      A
 Frequencies --   1234.7228              1270.0941              1295.3975
 Red. masses --      1.3616                 1.8106                 1.5967
 Frc consts  --      1.2230                 1.7209                 1.5787
 IR Inten    --      1.3187                 0.7983                34.7119

                     55                     56                     57
                      A                      A                      A
 Frequencies --   1300.7096              1341.0688              1359.7038
 Red. masses --      1.8895                 1.7505                 1.1197
 Frc consts  --      1.8835                 1.8549                 1.2196
 IR Inten    --      4.0498               244.8904                67.0092

                     58                     59                     60
                      A                      A                      A
 Frequencies --   1366.7701              1378.2443              1414.9563
 Red. masses --      1.2914                 1.2454                 2.7653
 Frc consts  --      1.4213                 1.3938                 3.2619
 IR Inten    --    130.4706                26.9130               576.3895

                     61                     62                     63
                      A                      A                      A
 Frequencies --   1426.3400              1435.3522              1449.8561
 Red. masses --      1.3789                 1.9562                 1.4836
 Frc consts  --      1.6529                 2.3745                 1.8374
 IR Inten    --    130.2780               700.3135               368.3614

                     64                     65                     66
                      A                      A                      A
 Frequencies --   1453.5277              1455.6156              1470.6294
 Red. masses --      1.1539                 1.1405                 1.1066
 Frc consts  --      1.4363                 1.4237                 1.4101
 IR Inten    --      7.3213                 2.5232                 6.2215

                     67                     68                     69
                      A                      A                      A
 Frequencies --   1476.3250              1479.3934              1481.9846
 Red. masses --      1.0392                 1.0499                 1.1221
 Frc consts  --      1.3345                 1.3538                 1.4521
 IR Inten    --      0.3191                 2.2368                 7.2022

                     70                     71                     72
                      A                      A                      A
 Frequencies --   1485.7633              1496.8877              1505.0645
 Red. masses --      1.0469                 1.0684                 1.0804
 Frc consts  --      1.3616                 1.4104                 1.4420
 IR Inten    --      2.8232                26.6706                36.5158

                     73                     74                     75
                      A                      A                      A
 Frequencies --   1507.0295              1508.5382              1516.8353
 Red. masses --      1.0963                 1.1897                 1.0701
 Frc consts  --      1.4669                 1.5951                 1.4506
 IR Inten    --     36.9135                52.1781                73.4849

                     76                     77                     78
                      A                      A                      A
 Frequencies --   2181.5836              2334.3606              3039.7268
 Red. masses --      1.1722                 1.1038                 1.0649
 Frc consts  --      3.2869                 3.5439                 5.7975
 IR Inten    --   1896.5421              6754.2209                16.7208

                     79                     80                     81
                      A                      A                      A
 Frequencies --   3065.9005              3073.7625              3079.3869
 Red. masses --      1.0597                 1.0310                 1.0321
 Frc consts  --      5.8689                 5.7389                 5.7663
 IR Inten    --     11.2053                 6.5185                 9.4039

                     82                     83                     84
                      A                      A                      A
 Frequencies --   3081.5603              3085.4745              3086.0706
 Red. masses --      1.0545                 1.0751                 1.0571
 Frc consts  --      5.8998                 6.0305                 5.9315
 IR Inten    --     18.0811                14.4016                12.7916

                     85                     86                     87
                      A                      A                      A
 Frequencies --   3108.8823              3137.2963              3162.6793
 Red. masses --      1.1017                 1.1088                 1.1081
 Frc consts  --      6.2739                 6.4299                 6.5306
 IR Inten    --     19.7251                19.5866                 1.3436

                     88                     89                     90
                      A                      A                      A
 Frequencies --   3165.4393              3168.8941              3170.4705
 Red. masses --      1.1080                 1.1082                 1.1082
 Frc consts  --      6.5412                 6.5568                 6.5633
 IR Inten    --      1.2461                10.0709                 7.4601

                     91                     92                     93
                      A                      A                      A
 Frequencies --   3179.1863              3183.7615              3765.4497
 Red. masses --      1.1071                 1.1072                 1.0657
 Frc consts  --      6.5928                 6.6123                 8.9028
 IR Inten    --      2.5532                 5.8935               215.5366

 - Thermochemistry -
 -------------------
 Temperature   298.150 Kelvin.  Pressure   1.00000 Atm.
 Atom     1 has atomic number  6 and mass  12.00000

 Molecular mass:   243.08718 amu.
 Principal axes and moments of inertia in atomic units:
                           1         2         3
     Eigenvalues --  1751.585179537.28192**********
           X            0.99996   0.00886  -0.00201
           Y           -0.00882   0.99980   0.01798
           Z            0.00217  -0.01796   0.99984
 This molecule is an asymmetric top.
 Rotational symmetry number  1.
 Warning -- assumption of classical behavior for rotation
           may cause significant error
 Rotational temperatures (Kelvin)      0.04945     0.00908     0.00841
 Rotational constants (GHZ):           1.03035     0.18923     0.17518
 Zero-point vibrational energy     711890.1 (Joules/Mol)
                                  170.14583 (Kcal/Mol)
 Warning -- explicit consideration of  29 degrees of freedom as
           vibrations may cause significant error
 Vibrational temperatures:     36.57    45.10    55.72    85.17    86.92
          (Kelvin)            127.97   160.58   183.32   200.50   260.20
                              281.84   303.12   358.21   392.23   420.77
                              437.54   483.49   505.12   529.68   540.05
                              544.78   616.56   654.58   661.70   667.29
                              721.34   729.24   817.36   874.08   966.20
                             1096.59  1140.75  1160.43  1272.30  1280.47
                             1308.35  1342.93  1375.72  1385.11  1397.90
                             1436.98  1481.72  1491.06  1547.85  1553.56
                             1560.69  1566.54  1660.56  1662.17  1715.81
                             1745.55  1776.49  1827.38  1863.79  1871.43
                             1929.50  1956.31  1966.48  1982.99  2035.81
                             2052.19  2065.15  2086.02  2091.30  2094.31
                             2115.91  2124.10  2128.52  2132.25  2137.68
                             2153.69  2165.45  2168.28  2170.45  2182.39
                             3138.81  3358.62  4373.49  4411.15  4422.46
                             4430.55  4433.68  4439.31  4440.17  4472.99
                             4513.87  4550.39  4554.36  4559.33  4561.60
                             4574.14  4580.72  5417.64

 Zero-point correction=                           0.271145 (Hartree/Particle)
 Thermal correction to Energy=                    0.289270
 Thermal correction to Enthalpy=                  0.290214
 Thermal correction to Gibbs Free Energy=         0.223013
 Sum of electronic and zero-point Energies=          -1125.253476
 Sum of electronic and thermal Energies=             -1125.235350
 Sum of electronic and thermal Enthalpies=           -1125.234406
 Sum of electronic and thermal Free Energies=        -1125.301608

                     E (Thermal)             CV                S
                      KCal/Mol        Cal/Mol-Kelvin    Cal/Mol-Kelvin
 Total                  181.520             65.477            141.437
 Electronic               0.000              0.000              0.000
 Translational            0.889              2.981             42.366
 Rotational               0.889              2.981             33.509
 Vibrational            179.742             59.515             65.563
 Vibration     1          0.593              1.985              6.158
 Vibration     2          0.594              1.983              5.743
 Vibration     3          0.594              1.981              5.323
 Vibration     4          0.597              1.974              4.484
 Vibration     5          0.597              1.973              4.444
 Vibration     6          0.602              1.957              3.683
 Vibration     7          0.607              1.940              3.241
 Vibration     8          0.611              1.926              2.985
 Vibration     9          0.615              1.914              2.813
 Vibration    10          0.630              1.866              2.320
 Vibration    11          0.636              1.846              2.171
 Vibration    12          0.643              1.825              2.038
 Vibration    13          0.662              1.764              1.738
 Vibration    14          0.676              1.724              1.580
 Vibration    15          0.688              1.688              1.460
 Vibration    16          0.695              1.666              1.394
 Vibration    17          0.717              1.604              1.231
 Vibration    18          0.728              1.573              1.161
 Vibration    19          0.741              1.538              1.088
 Vibration    20          0.746              1.523              1.058
 Vibration    21          0.749              1.516              1.045
 Vibration    22          0.790              1.408              0.863
 Vibration    23          0.813              1.350              0.781
 Vibration    24          0.818              1.339              0.766
 Vibration    25          0.821              1.330              0.755
 Vibration    26          0.857              1.247              0.655
 Vibration    27          0.862              1.235              0.641
 Vibration    28          0.924              1.100              0.508
 Vibration    29          0.966              1.016              0.437

 Optimization completed.
    -- Stationary point found.
 Normal termination of Gaussian 16 at Mon Dec 12 01:57:16 2022.
