 Gaussian 16, Revision A.03,
 Gaussian 16:  ES64L-G16RevA.03 25-Dec-2016

 ------------------------------------
 #p 6-311+g(2d,p) nosymm em=gd3 m062x
 ------------------------------------

 -------------------
 Title Card Required
 -------------------
 Symbolic Z-matrix:
 Charge =  0 Multiplicity = 1

                          Input orientation:
 ---------------------------------------------------------------------
 Center     Atomic      Atomic             Coordinates (Angstroms)
 Number     Number       Type             X           Y           Z
 ---------------------------------------------------------------------
      1          6           0       18.419831    2.621246   13.843774
      2          6           0       18.590494    1.600082   14.766547
      3          6           0       16.432963    1.586050   14.099707
      4          7           0       17.081952    2.592291   13.438470
      5          1           0       19.126443    3.336532   13.469123
      6          1           0       19.465161    1.298154   15.308900
      7          1           0       15.380153    1.283101   13.986253
      8          6           0       16.473479    3.541883   12.524521
      9          1           0       17.233460    4.127946   11.985744
     10          1           0       15.830903    3.024579   11.776363
     11          1           0       15.812398    4.248203   13.084407
     12          7           0       17.356221    0.956641   14.899799
     13          6           0       17.036909   -0.039279   15.923271
     14          1           0       17.791655   -0.855059   15.877536
     15          1           0       16.042073   -0.504708   15.683414
     16          6           0       17.012617    0.612555   17.323820
     17          1           0       17.637940    0.011737   18.014754
     18          1           0       17.497860    1.614430   17.289153
     19          6           0       15.610827    0.743578   17.893510
     20          1           0       15.651696    1.176559   18.911303
     21          1           0       15.135966   -0.246663   18.018358
     22         16           0       14.491181    1.773780   16.895517
     23          8           0       13.670431    2.494807   17.852502
     24          8           0       15.349278    2.616642   15.995785
     25          8           0       13.794312    0.776025   16.017540
 ---------------------------------------------------------------------

 SCF Done:  E(RM062X) =  -1007.20898893     A.U. after   14 cycles

 Alpha  occ. eigenvalues --  -90.04134 -19.55239 -19.55042 -19.54023 -14.87636
 Alpha  occ. eigenvalues --  -14.86706 -10.68430 -10.63489 -10.63309 -10.62953
 Alpha  occ. eigenvalues --  -10.61750 -10.56162 -10.54198  -8.37561  -6.29833
 Alpha  occ. eigenvalues --   -6.29817  -6.29783  -1.20154  -1.18233  -1.08963
 Alpha  occ. eigenvalues --   -1.05413  -1.02980  -0.93291  -0.90400  -0.86862
 Alpha  occ. eigenvalues --   -0.81288  -0.75571  -0.72986  -0.71048  -0.66161
 Alpha  occ. eigenvalues --   -0.61924  -0.60709  -0.58835  -0.57353  -0.57093
 Alpha  occ. eigenvalues --   -0.55808  -0.54619  -0.52396  -0.52112  -0.50861
 Alpha  occ. eigenvalues --   -0.49678  -0.48254  -0.47739  -0.45561  -0.43904
 Alpha  occ. eigenvalues --   -0.42169  -0.38682  -0.37466  -0.35971  -0.34429
 Alpha  occ. eigenvalues --   -0.32198  -0.31780  -0.30664  -0.27985
 Alpha virt. eigenvalues --   -0.02163  -0.01003  -0.00729   0.00179   0.00967
 Alpha virt. eigenvalues --    0.01825   0.02411   0.03076   0.03487   0.04421
 Alpha virt. eigenvalues --    0.04883   0.05943   0.06028   0.06748   0.07654

 Mulliken charges:
               1
     1  C   -0.120365
     2  C   -0.210269
     3  C   -0.233699
     4  N    0.275106
     5  H    0.156391
     6  H    0.164380
     7  H    0.257904
     8  C   -0.440283
     9  H    0.166346
    10  H    0.187856
    11  H    0.222362
    12  N    0.291630
    13  C   -0.431942
    14  H    0.180638
    15  H    0.231565
    16  C   -0.168731
    17  H    0.155276
    18  H    0.182117
    19  C   -0.520686
    20  H    0.200282
    21  H    0.199533
    22  S    1.107667
    23  O   -0.458620
    24  O   -0.692467
    25  O   -0.701991
 Sum of Mulliken charges =  -0.00000

 Dipole moment (field-independent basis, Debye):
    X=             10.9765    Y=             -1.1184    Z=             -7.1257  Tot=             13.1343
 Quadrupole moment (field-independent basis, Debye-Ang):
   XX=            259.3484   YY=            -83.7177   ZZ=           -295.1895
   XY=              2.6185   XZ=             64.2749   YZ=            -45.1274

 Normal termination of Gaussian 16 at Mon Jul 10 18:50:29 2023.
