 Gaussian 16, Revision A.03,
 Gaussian 16:  ES64L-G16RevA.03 25-Dec-2016

 ------------------------------------
 #p 6-311+g(2d,p) nosymm em=gd3 m062x
 ------------------------------------

 -------------------
 Title Card Required
 -------------------
 Symbolic Z-matrix:
 Charge =  0 Multiplicity = 1

                          Input orientation:
 ---------------------------------------------------------------------
 Center     Atomic      Atomic             Coordinates (Angstroms)
 Number     Number       Type             X           Y           Z
 ---------------------------------------------------------------------
      1         15           0       12.804603    2.670792   13.285356
      2          8           0       13.712647    1.968259   12.374746
      3          8           0       13.526276    3.855278   14.083052
      4          1           0       14.181852    3.477527   14.793464
      5          8           0       11.686500    3.468651   12.477753
      6          1           0       11.093177    3.947216   13.175541
      7          8           0       11.978208    1.813793   14.312213
      8          1           0       12.660562    1.287372   14.967829
 ---------------------------------------------------------------------

 SCF Done:  E(RM062X) =  -644.139257160     A.U. after   12 cycles

 Alpha  occ. eigenvalues --  -78.16753 -19.70003 -19.68248 -19.67874 -19.58076
 Alpha  occ. eigenvalues --   -6.97545  -5.09461  -5.09439  -5.09213  -1.24485
 Alpha  occ. eigenvalues --   -1.17430  -1.16359  -1.08499  -0.72847  -0.65864
 Alpha  occ. eigenvalues --   -0.63764  -0.58561  -0.52813  -0.51907  -0.50063
 Alpha  occ. eigenvalues --   -0.46313  -0.45208  -0.44785  -0.38098  -0.36900
 Alpha virt. eigenvalues --   -0.03639   0.01040   0.02669   0.04659   0.08009
 Alpha virt. eigenvalues --    0.10094   0.10524   0.12497   0.15708   0.16933
 Alpha virt. eigenvalues --    0.17786   0.18409   0.19665   0.20033   0.21495

 Mulliken charges:
               1
     1  P    1.292251
     2  O   -0.620244
     3  O   -0.560457
     4  H    0.305357
     5  O   -0.487545
     6  H    0.303607
     7  O   -0.560931
     8  H    0.327963
 Sum of Mulliken charges =  -0.00000

 Dipole moment (field-independent basis, Debye):
    X=             -0.7825    Y=              0.5212    Z=              5.4252  Tot=              5.5061
 Quadrupole moment (field-independent basis, Debye-Ang):
   XX=            -54.0372   YY=            -32.6398   ZZ=            111.0848
   XY=              2.7829   XZ=             64.0964   YZ=             17.9974

 Normal termination of Gaussian 16 at Mon Jul 10 18:48:50 2023.
