 Gaussian 16, Revision A.03,
 Gaussian 16:  ES64L-G16RevA.03 25-Dec-2016

 ----------------------------------------
 #p opt freq b3lyp/6-311+g(2d,p) em=gd3bj
 ----------------------------------------

 -------------------
 Title Card Required
 -------------------
 Symbolic Z-matrix:
 Charge =  0 Multiplicity = 1

 SCF Done:  E(RB3LYP) =  -481.126311323     A.U. after   14 cycles
 SCF Done:  E(RB3LYP) =  -481.117699349     A.U. after   12 cycles
 SCF Done:  E(RB3LYP) =  -481.124726550     A.U. after   12 cycles
 SCF Done:  E(RB3LYP) =  -481.126358446     A.U. after    9 cycles
 SCF Done:  E(RB3LYP) =  -481.124560516     A.U. after   11 cycles
 SCF Done:  E(RB3LYP) =  -481.126248624     A.U. after   11 cycles
 SCF Done:  E(RB3LYP) =  -481.126407241     A.U. after    6 cycles
 SCF Done:  E(RB3LYP) =  -481.126188162     A.U. after   11 cycles
 SCF Done:  E(RB3LYP) =  -481.126430080     A.U. after   11 cycles
 SCF Done:  E(RB3LYP) =  -481.126433670     A.U. after    8 cycles
 SCF Done:  E(RB3LYP) =  -481.126433916     A.U. after    8 cycles
 SCF Done:  E(RB3LYP) =  -481.126434230     A.U. after    7 cycles
 Optimization completed.
    -- Stationary point found.
 Normal termination of Gaussian 16 at Wed Oct 11 18:04:37 2023.

 ----------------------------------------------------------------------
 #P Geom=AllCheck Guess=TCheck SCRF=Check GenChk RB3LYP/6-311+G(2d,p) F
 req
 ----------------------------------------------------------------------

 Structure from the checkpoint file:  "/data0/home/software/g16/scratch/Gau-2518072.chk"
 -------------------
 Title Card Required
 -------------------
 Charge =  0 Multiplicity = 1

                         Standard orientation:
 ---------------------------------------------------------------------
 Center     Atomic      Atomic             Coordinates (Angstroms)
 Number     Number       Type             X           Y           Z
 ---------------------------------------------------------------------
      1          6           0       -2.283355   -0.862994   -0.954306
      2          1           0       -2.985448   -1.500743   -0.421000
      3          1           0       -2.821601   -0.161715   -1.588701
      4          1           0       -1.605503   -1.467439   -1.551725
      5          6           0       -2.366374    0.711542    0.909847
      6          1           0       -3.031545    0.043125    1.452637
      7          1           0       -1.760588    1.276188    1.612497
      8          1           0       -2.944489    1.392450    0.288006
      9          6           0       -0.715070   -1.100045    0.885412
     10          1           0       -0.047428   -1.665493    0.235944
     11          1           0       -0.105945   -0.578890    1.616031
     12          1           0       -1.455574   -1.729017    1.376283
     13          6           0       -0.540053    0.826314   -0.759869
     14          1           0       -1.221448    1.497216   -1.283527
     15          1           0       -0.028925    0.166989   -1.462058
     16          6           0        0.512274    1.589068    0.056096
     17          1           0        0.361457    1.447552    1.129423
     18          1           0        0.390993    2.659489   -0.127477
     19          6           0        1.939831    1.127092   -0.293215
     20          1           0        2.650655    1.652246    0.344781
     21          1           0        2.153707    1.357824   -1.339489
     22          7           0       -1.466721   -0.099407    0.039251
     23          6           0        2.014051   -0.399738   -0.051945
     24          8           0        2.323867   -0.766534    1.097045
     25          8           0        1.594997   -1.113637   -1.010607
 ---------------------------------------------------------------------

 SCF Done:  E(RB3LYP) =  -481.126434230     A.U. after    1 cycles

 The electronic state is 1-A.
 Alpha  occ. eigenvalues --  -19.01856 -19.01523 -14.47258 -10.26457 -10.26033
 Alpha  occ. eigenvalues --  -10.23843 -10.22566 -10.20825 -10.18896 -10.14243
 Alpha  occ. eigenvalues --   -1.05013  -0.98205  -0.89421  -0.81312  -0.79412
 Alpha  occ. eigenvalues --   -0.77293  -0.73095  -0.66189  -0.61278  -0.56200
 Alpha  occ. eigenvalues --   -0.55718  -0.54161  -0.49403  -0.48351  -0.46904
 Alpha  occ. eigenvalues --   -0.45356  -0.44902  -0.44663  -0.43239  -0.42378
 Alpha  occ. eigenvalues --   -0.41852  -0.39578  -0.37424  -0.36973  -0.36325
 Alpha  occ. eigenvalues --   -0.33607  -0.31986  -0.21074  -0.19539  -0.18863
 Alpha virt. eigenvalues --   -0.03486  -0.00922  -0.00708   0.00133   0.01016
 Alpha virt. eigenvalues --    0.02311   0.02780   0.03488   0.03776   0.04648
 Alpha virt. eigenvalues --    0.05419   0.06595   0.07081   0.07757   0.07993

 Mulliken charges:
               1
     1  C   -0.225378
     2  H    0.161032
     3  H    0.160822
     4  H    0.204587
     5  C   -0.210680
     6  H    0.163266
     7  H    0.174864
     8  H    0.164351
     9  C   -0.305799
    10  H    0.265778
    11  H    0.207041
    12  H    0.149486
    13  C   -0.192723
    14  H    0.125038
    15  H    0.222419
    16  C   -0.068544
    17  H    0.114815
    18  H    0.110122
    19  C   -0.393400
    20  H    0.124485
    21  H    0.118500
    22  N   -0.288622
    23  C    0.411074
    24  O   -0.566793
    25  O   -0.625742
 Sum of Mulliken charges =   0.00000

 Dipole moment (field-independent basis, Debye):
    X=            -12.0435    Y=              3.9664    Z=             -0.2148  Tot=             12.6817
 Quadrupole moment (field-independent basis, Debye-Ang):
   XX=            -66.2294   YY=            -64.5929   ZZ=            -66.0353
   XY=             10.1934   XZ=             -3.1562   YZ=             -0.5944

  Exact polarizability: 107.143   1.715  98.542   2.402  -1.249  93.454
 Approx polarizability: 137.424   0.367 139.714   6.157  -0.158 148.847

                      1                      2                      3
                      A                      A                      A
 Frequencies --     55.9570               113.0591               137.0429
 Red. masses --      3.6900                 8.9364                 3.5069
 Frc consts  --      0.0068                 0.0673                 0.0388
 IR Inten    --      2.9280                10.0722                10.7429

                      4                      5                      6
                      A                      A                      A
 Frequencies --    153.1865               213.0588               230.8164
 Red. masses --      3.0184                 3.0791                 1.1318
 Frc consts  --      0.0417                 0.0824                 0.0355
 IR Inten    --      9.8836                23.3801                 4.8890

                      7                      8                      9
                      A                      A                      A
 Frequencies --    280.4773               303.0725               328.3898
 Red. masses --      1.4186                 1.5594                 1.3839
 Frc consts  --      0.0658                 0.0844                 0.0879
 IR Inten    --      1.6360                 0.6460                 4.8023

                     10                     11                     12
                      A                      A                      A
 Frequencies --    333.5503               385.6571               409.5843
 Red. masses --      1.8686                 2.2876                 2.3993
 Frc consts  --      0.1225                 0.2005                 0.2372
 IR Inten    --      1.9470                 7.6483                 2.4877

                     13                     14                     15
                      A                      A                      A
 Frequencies --    446.3139               451.3385               475.9435
 Red. masses --      2.3534                 2.4623                 2.2336
 Frc consts  --      0.2762                 0.2955                 0.2981
 IR Inten    --      2.7940                 1.4934                 0.2273

                     16                     17                     18
                      A                      A                      A
 Frequencies --    507.9902               613.8474               708.7486
 Red. masses --      2.4407                 4.2853                 3.0598
 Frc consts  --      0.3711                 0.9514                 0.9056
 IR Inten    --      1.1746                 6.4553                 3.0100

                     19                     20                     21
                      A                      A                      A
 Frequencies --    780.1242               819.9068               872.9639
 Red. masses --      2.6960                 3.5646                 2.7019
 Frc consts  --      0.9667                 1.4118                 1.2132
 IR Inten    --      3.7769                27.1326                27.3438

                     22                     23                     24
                      A                      A                      A
 Frequencies --    886.3821               922.9066               950.7867
 Red. masses --      3.1580                 2.9004                 2.7043
 Frc consts  --      1.4619                 1.4555                 1.4404
 IR Inten    --     12.9955                 4.5904                20.2138

                     25                     26                     27
                      A                      A                      A
 Frequencies --    980.8191              1036.7328              1042.6869
 Red. masses --      2.3916                 1.8018                 1.7694
 Frc consts  --      1.3556                 1.1410                 1.1334
 IR Inten    --     10.2877                 0.9387                 9.5922

                     28                     29                     30
                      A                      A                      A
 Frequencies --   1050.8973              1075.2720              1135.7778
 Red. masses --      2.7476                 1.1986                 1.2252
 Frc consts  --      1.7878                 0.8165                 0.9312
 IR Inten    --      3.6052                 0.5987                 6.5237

                     31                     32                     33
                      A                      A                      A
 Frequencies --   1145.5298              1181.1570              1225.4068
 Red. masses --      1.2764                 1.3034                 1.3377
 Frc consts  --      0.9868                 1.0713                 1.1835
 IR Inten    --      1.4926                 3.3328                 4.5608

                     34                     35                     36
                      A                      A                      A
 Frequencies --   1256.5167              1267.4458              1298.5046
 Red. masses --      1.6053                 1.9313                 1.8471
 Frc consts  --      1.4933                 1.8280                 1.8350
 IR Inten    --      6.1569                 0.5674                 1.2075

                     37                     38                     39
                      A                      A                      A
 Frequencies --   1314.8268              1329.0838              1373.3806
 Red. masses --      1.4045                 1.8489                 1.3024
 Frc consts  --      1.4306                 1.9243                 1.4473
 IR Inten    --     15.2133                55.2648                 5.6109

                     40                     41                     42
                      A                      A                      A
 Frequencies --   1384.9191              1436.9998              1446.6085
 Red. masses --      2.5422                 1.1837                 1.1443
 Frc consts  --      2.8728                 1.4401                 1.4109
 IR Inten    --    105.0510                18.8049                 3.4302

                     43                     44                     45
                      A                      A                      A
 Frequencies --   1451.7368              1459.1320              1472.1883
 Red. masses --      1.1635                 1.0845                 1.0609
 Frc consts  --      1.4448                 1.3604                 1.3548
 IR Inten    --      4.1036                18.0570                 6.5829

                     46                     47                     48
                      A                      A                      A
 Frequencies --   1481.8669              1490.5881              1492.9363
 Red. masses --      1.0888                 1.0667                 1.0761
 Frc consts  --      1.4087                 1.3964                 1.4131
 IR Inten    --      5.2392                 2.8295                 5.2982

                     49                     50                     51
                      A                      A                      A
 Frequencies --   1496.4084              1506.4604              1514.3015
 Red. masses --      1.0519                 1.1394                 1.0648
 Frc consts  --      1.3877                 1.5235                 1.4386
 IR Inten    --      0.8466                 7.8923                57.8485

                     52                     53                     54
                      A                      A                      A
 Frequencies --   1516.9853              1528.7102              1647.9265
 Red. masses --      1.0933                 1.0596                 7.6338
 Frc consts  --      1.4824                 1.4589                12.2143
 IR Inten    --     56.0209                68.3588               416.3505

                     55                     56                     57
                      A                      A                      A
 Frequencies --   3030.9528              3037.7048              3039.1827
 Red. masses --      1.0606                 1.0640                 1.0590
 Frc consts  --      5.7408                 5.7848                 5.7630
 IR Inten    --     27.1999                24.2007                17.1452

                     58                     59                     60
                      A                      A                      A
 Frequencies --   3046.8098              3063.4314              3064.7373
 Red. masses --      1.0399                 1.0646                 1.0591
 Frc consts  --      5.6875                 5.8862                 5.8613
 IR Inten    --     87.1248                29.8304                19.9018

                     61                     62                     63
                      A                      A                      A
 Frequencies --   3070.2589              3099.4636              3104.8020
 Red. masses --      1.0332                 1.1039                 1.1086
 Frc consts  --      5.7384                 6.2484                 6.2963
 IR Inten    --     33.6638                25.5127                 4.1158

                     64                     65                     66
                      A                      A                      A
 Frequencies --   3136.3082              3146.0643              3151.3646
 Red. masses --      1.1077                 1.1072                 1.1063
 Frc consts  --      6.4198                 6.4569                 6.4731
 IR Inten    --      9.9749                 0.1383                13.9046

                     67                     68                     69
                      A                      A                      A
 Frequencies --   3162.9236              3166.9251              3179.2562
 Red. masses --      1.1075                 1.1055                 1.1033
 Frc consts  --      6.5279                 6.5324                 6.5705
 IR Inten    --      0.2497                 2.1855                 1.9854

 - Thermochemistry -
 -------------------
 Temperature   298.150 Kelvin.  Pressure   1.00000 Atm.
 Atom     1 has atomic number  6 and mass  12.00000

 Molecular mass:   145.11028 amu.
 Principal axes and moments of inertia in atomic units:
                           1         2         3
     Eigenvalues --   856.936681945.538952120.28548
           X            0.99944   0.03291  -0.00591
           Y           -0.03294   0.99945  -0.00382
           Z            0.00578   0.00401   0.99998
 This molecule is an asymmetric top.
 Rotational symmetry number  1.
 Warning -- assumption of classical behavior for rotation
           may cause significant error
 Rotational temperatures (Kelvin)      0.10107     0.04452     0.04085
 Rotational constants (GHZ):           2.10604     0.92763     0.85118
 Zero-point vibrational energy     585710.2 (Joules/Mol)
                                  139.98809 (Kcal/Mol)
 Warning -- explicit consideration of  17 degrees of freedom as
           vibrations may cause significant error
 Vibrational temperatures:     80.51   162.67   197.17   220.40   306.54
          (Kelvin)            332.09   403.54   436.05   472.48   479.90
                              554.87   589.30   642.15   649.38   684.78
                              730.88   883.19  1019.73  1122.42  1179.66
                             1256.00  1275.31  1327.86  1367.97  1411.18
                             1491.63  1500.19  1512.01  1547.08  1634.13
                             1648.16  1699.42  1763.09  1807.85  1823.57
                             1868.26  1891.74  1912.26  1975.99  1992.59
                             2067.52  2081.35  2088.73  2099.37  2118.15
                             2132.08  2144.62  2148.00  2153.00  2167.46
                             2178.74  2182.60  2199.47  2371.00  4360.87
                             4370.58  4372.71  4383.68  4407.59  4409.47
                             4417.42  4459.44  4467.12  4512.45  4526.48
                             4534.11  4550.74  4556.50  4574.24

 Zero-point correction=                           0.223085 (Hartree/Particle)
 Thermal correction to Energy=                    0.234061
 Thermal correction to Enthalpy=                  0.235005
 Thermal correction to Gibbs Free Energy=         0.187195
 Sum of electronic and zero-point Energies=           -480.903349
 Sum of electronic and thermal Energies=              -480.892373
 Sum of electronic and thermal Enthalpies=            -480.891429
 Sum of electronic and thermal Free Energies=         -480.939239

                     E (Thermal)             CV                S
                      KCal/Mol        Cal/Mol-Kelvin    Cal/Mol-Kelvin
 Total                  146.876             41.866            100.625
 Electronic               0.000              0.000              0.000
 Translational            0.889              2.981             40.828
 Rotational               0.889              2.981             29.648
 Vibrational            145.098             35.904             30.149
 Vibration     1          0.596              1.975              4.595
 Vibration     2          0.607              1.939              3.216
 Vibration     3          0.614              1.916              2.845
 Vibration     4          0.619              1.899              2.632
 Vibration     5          0.644              1.821              2.017
 Vibration     6          0.653              1.794              1.873
 Vibration     7          0.680              1.710              1.531
 Vibration     8          0.695              1.668              1.400
 Vibration     9          0.712              1.619              1.268
 Vibration    10          0.715              1.609              1.243
 Vibration    11          0.754              1.501              1.017
 Vibration    12          0.774              1.449              0.928
 Vibration    13          0.806              1.369              0.807
 Vibration    14          0.810              1.358              0.792
 Vibration    15          0.833              1.303              0.721
 Vibration    16          0.863              1.232              0.638
 Vibration    17          0.973              1.003              0.426

                           ! Non-Optimized Parameters !
 Normal termination of Gaussian 16 at Wed Oct 11 18:09:51 2023.
