 Gaussian 16, Revision A.03,
 Gaussian 16:  ES64L-G16RevA.03 25-Dec-2016

 ---------------
 #p M052X/6-31G*
 ---------------

 -------------------
 Title Card Required
 -------------------
 Symbolic Z-matrix:
 Charge =  0 Multiplicity = 1

                         Standard orientation:
 ---------------------------------------------------------------------
 Center     Atomic      Atomic             Coordinates (Angstroms)
 Number     Number       Type             X           Y           Z
 ---------------------------------------------------------------------
      1          6           0       -2.283355   -0.862994   -0.954306
      2          1           0       -2.985448   -1.500743   -0.421000
      3          1           0       -2.821601   -0.161715   -1.588701
      4          1           0       -1.605503   -1.467439   -1.551725
      5          6           0       -2.366374    0.711542    0.909847
      6          1           0       -3.031545    0.043125    1.452637
      7          1           0       -1.760588    1.276188    1.612497
      8          1           0       -2.944489    1.392450    0.288006
      9          6           0       -0.715070   -1.100045    0.885412
     10          1           0       -0.047428   -1.665493    0.235944
     11          1           0       -0.105945   -0.578890    1.616031
     12          1           0       -1.455574   -1.729017    1.376283
     13          6           0       -0.540053    0.826314   -0.759869
     14          1           0       -1.221448    1.497216   -1.283527
     15          1           0       -0.028925    0.166989   -1.462058
     16          6           0        0.512274    1.589068    0.056096
     17          1           0        0.361457    1.447552    1.129423
     18          1           0        0.390992    2.659489   -0.127477
     19          6           0        1.939831    1.127092   -0.293215
     20          1           0        2.650655    1.652246    0.344781
     21          1           0        2.153707    1.357824   -1.339489
     22          7           0       -1.466721   -0.099407    0.039251
     23          6           0        2.014051   -0.399738   -0.051945
     24          8           0        2.323867   -0.766534    1.097045
     25          8           0        1.594997   -1.113637   -1.010607
 ---------------------------------------------------------------------

 SCF Done:  E(RM052X) =  -480.849666497     A.U. after   14 cycles

 The electronic state is 1-A.
 Alpha  occ. eigenvalues --  -19.55710 -19.55120 -14.95930 -10.66741 -10.66330
 Alpha  occ. eigenvalues --  -10.64039 -10.62598 -10.60008 -10.58726 -10.53425
 Alpha  occ. eigenvalues --   -1.16489  -1.08102  -0.98154  -0.91382  -0.89466
 Alpha  occ. eigenvalues --   -0.87154  -0.82403  -0.74790  -0.69508  -0.63787
 Alpha  occ. eigenvalues --   -0.63170  -0.61449  -0.56516  -0.55334  -0.53653
 Alpha  occ. eigenvalues --   -0.51840  -0.51392  -0.51045  -0.49559  -0.48639
 Alpha  occ. eigenvalues --   -0.48057  -0.45623  -0.43232  -0.42662  -0.42009
 Alpha  occ. eigenvalues --   -0.39030  -0.37357  -0.25048  -0.24284  -0.23640
 Alpha virt. eigenvalues --    0.06574   0.11135   0.12085   0.12972   0.13599
 Alpha virt. eigenvalues --    0.14639   0.15148   0.17117   0.18009   0.18524
 Alpha virt. eigenvalues --    0.18998   0.19424   0.20582   0.21305   0.24365

 Mulliken charges:
               1
     1  C   -0.368946
     2  H    0.209067
     3  H    0.208684
     4  H    0.260890
     5  C   -0.361603
     6  H    0.212741
     7  H    0.235620
     8  H    0.209659
     9  C   -0.406578
    10  H    0.300085
    11  H    0.251828
    12  H    0.184433
    13  C   -0.211674
    14  H    0.177788
    15  H    0.279222
    16  C   -0.372052
    17  H    0.178577
    18  H    0.178860
    19  C   -0.363851
    20  H    0.172428
    21  H    0.159545
    22  N   -0.430474
    23  C    0.536141
    24  O   -0.602670
    25  O   -0.637719
 Sum of Mulliken charges =  -0.00000

 Dipole moment (field-independent basis, Debye):
    X=            -12.1053    Y=              3.8008    Z=             -0.1624  Tot=             12.6890
 Quadrupole moment (field-independent basis, Debye-Ang):
   XX=            -64.1995   YY=            -62.5447   ZZ=            -63.8780
   XY=              9.6772   XZ=             -2.8875   YZ=             -0.4126

 Normal termination of Gaussian 16 at Wed Oct 11 20:26:00 2023.
