 Gaussian 16, Revision A.03,
 Gaussian 16:  ES64L-G16RevA.03 25-Dec-2016

 ----------------------------------------
 #p M052X/6-31G* scrf=(smd,solvent=water)
 ----------------------------------------

 -------------------
 Title Card Required
 -------------------
 Symbolic Z-matrix:
 Charge =  0 Multiplicity = 1

                         Standard orientation:
 ---------------------------------------------------------------------
 Center     Atomic      Atomic             Coordinates (Angstroms)
 Number     Number       Type             X           Y           Z
 ---------------------------------------------------------------------
      1          6           0        2.012025   -0.616100    1.006531
      2          6           0        0.933717   -1.438188    0.951606
      3          6           0        0.991965   -0.270210   -0.918677
      4          7           0        2.031452    0.102814   -0.173559
      5          1           0        2.761727   -0.479399    1.765585
      6          1           0        0.551903   -2.152703    1.658969
      7          1           0        0.744840    0.119282   -1.890781
      8          6           0        3.019831    1.114508   -0.539410
      9          1           0        2.767447    1.506038   -1.521030
     10          1           0        2.999318    1.917844    0.194366
     11          1           0        4.008916    0.661635   -0.564177
     12          7           0        0.316677   -1.215341   -0.263454
     13          6           0       -0.956819   -1.807469   -0.697630
     14          1           0       -0.915800   -2.866035   -0.446513
     15          1           0       -0.992981   -1.712506   -1.781836
     16          6           0       -2.167930   -1.144200   -0.051639
     17          1           0       -3.038236   -1.714459   -0.385385
     18          1           0       -2.111684   -1.253397    1.033077
     19          6           0       -2.352480    0.325304   -0.430056
     20          1           0       -3.374451    0.625194   -0.175506
     21          1           0       -2.246673    0.455798   -1.508841
     22          6           0       -1.442179    1.330543    0.287585
     23          8           0       -1.045237    2.332299   -0.378340
     24          8           0       -1.182263    1.132110    1.507253
 ---------------------------------------------------------------------

 SCF Done:  E(RM052X) =  -571.981165214     A.U. after   13 cycles

 The electronic state is 1-A.
 Alpha  occ. eigenvalues --  -19.61205 -19.60936 -14.89962 -14.89630 -10.67846
 Alpha  occ. eigenvalues --  -10.65751 -10.62949 -10.62846 -10.62041 -10.61438
 Alpha  occ. eigenvalues --  -10.56976 -10.55642  -1.20135  -1.13418  -1.07299
 Alpha  occ. eigenvalues --   -1.03216  -0.92136  -0.89202  -0.85237  -0.80092
 Alpha  occ. eigenvalues --   -0.74108  -0.71135  -0.69527  -0.63487  -0.59380
 Alpha  occ. eigenvalues --   -0.57904  -0.55904  -0.54901  -0.54233  -0.53463
 Alpha  occ. eigenvalues --   -0.52045  -0.51540  -0.49533  -0.48956  -0.47666
 Alpha  occ. eigenvalues --   -0.46960  -0.45952  -0.43843  -0.40644  -0.40227
 Alpha  occ. eigenvalues --   -0.36064  -0.32793  -0.30864  -0.30320  -0.29930
 Alpha virt. eigenvalues --    0.03647   0.06600   0.11612   0.14652   0.15795
 Alpha virt. eigenvalues --    0.17004   0.17990   0.19795   0.20361   0.21357
 Alpha virt. eigenvalues --    0.22004   0.22823   0.23574   0.23804   0.24237

 Mulliken charges:
               1
     1  C   -0.009590
     2  C   -0.012674
     3  C    0.298592
     4  N   -0.437434
     5  H    0.278531
     6  H    0.279073
     7  H    0.313076
     8  C   -0.373455
     9  H    0.241139
    10  H    0.242121
    11  H    0.240569
    12  N   -0.428602
    13  C   -0.203898
    14  H    0.237938
    15  H    0.235101
    16  C   -0.331204
    17  H    0.198989
    18  H    0.187039
    19  C   -0.418221
    20  H    0.206225
    21  H    0.173136
    22  C    0.551655
    23  O   -0.745062
    24  O   -0.723044
 Sum of Mulliken charges =  -0.00000

 Dipole moment (field-independent basis, Debye):
    X=              9.1754    Y=            -11.3206    Z=             -4.9033  Tot=             15.3749
 Quadrupole moment (field-independent basis, Debye-Ang):
   XX=            -50.6810   YY=            -80.4057   ZZ=            -68.8168
   XY=             16.0556   XZ=              5.1675   YZ=             -4.7586

 Normal termination of Gaussian 16 at Wed Oct 11 21:25:38 2023.
