 Gaussian 16, Revision A.03,
 Gaussian 16:  ES64L-G16RevA.03 25-Dec-2016

 -----------------------------------------------------------------
 #p opt freq b3lyp/6-311+g(2d,p) scrf=(smd,solvent=water) em=gd3bj
 -----------------------------------------------------------------

 -------------------
 Title Card Required
 -------------------
 Symbolic Z-matrix:
 Charge =  0 Multiplicity = 1

 SCF Done:  E(RB3LYP) =  -572.283101063     A.U. after   13 cycles
 SCF Done:  E(RB3LYP) =  -572.282969306     A.U. after   10 cycles
 SCF Done:  E(RB3LYP) =  -572.282694936     A.U. after   10 cycles
 SCF Done:  E(RB3LYP) =  -572.283110124     A.U. after   10 cycles
 SCF Done:  E(RB3LYP) =  -572.283120263     A.U. after   10 cycles
 SCF Done:  E(RB3LYP) =  -572.283123192     A.U. after    8 cycles
 SCF Done:  E(RB3LYP) =  -572.283123131     A.U. after    8 cycles
 SCF Done:  E(RB3LYP) =  -572.283123165     A.U. after    6 cycles
 SCF Done:  E(RB3LYP) =  -572.283123224     A.U. after    7 cycles
 Optimization completed.
    -- Stationary point found.
 Normal termination of Gaussian 16 at Wed Oct 11 21:12:36 2023.

 ----------------------------------------------------------------------
 #P Geom=AllCheck Guess=TCheck SCRF=Check GenChk RB3LYP/6-311+G(2d,p) F
 req
 ----------------------------------------------------------------------

 Structure from the checkpoint file:  "/data0/home/software/g16/scratch/Gau-2534406.chk"
 -------------------
 Title Card Required
 -------------------
 Charge =  0 Multiplicity = 1

                         Standard orientation:
 ---------------------------------------------------------------------
 Center     Atomic      Atomic             Coordinates (Angstroms)
 Number     Number       Type             X           Y           Z
 ---------------------------------------------------------------------
      1          6           0        2.012025   -0.616100    1.006531
      2          6           0        0.933717   -1.438188    0.951606
      3          6           0        0.991965   -0.270210   -0.918677
      4          7           0        2.031452    0.102814   -0.173559
      5          1           0        2.761727   -0.479399    1.765585
      6          1           0        0.551903   -2.152703    1.658969
      7          1           0        0.744840    0.119282   -1.890781
      8          6           0        3.019831    1.114508   -0.539410
      9          1           0        2.767447    1.506038   -1.521030
     10          1           0        2.999318    1.917844    0.194366
     11          1           0        4.008916    0.661635   -0.564177
     12          7           0        0.316677   -1.215341   -0.263454
     13          6           0       -0.956819   -1.807469   -0.697630
     14          1           0       -0.915800   -2.866035   -0.446513
     15          1           0       -0.992981   -1.712506   -1.781836
     16          6           0       -2.167930   -1.144200   -0.051639
     17          1           0       -3.038236   -1.714459   -0.385385
     18          1           0       -2.111684   -1.253397    1.033077
     19          6           0       -2.352480    0.325304   -0.430056
     20          1           0       -3.374451    0.625194   -0.175506
     21          1           0       -2.246673    0.455798   -1.508841
     22          6           0       -1.442179    1.330543    0.287585
     23          8           0       -1.045237    2.332299   -0.378340
     24          8           0       -1.182263    1.132110    1.507253
 ---------------------------------------------------------------------

 SCF Done:  E(RB3LYP) =  -572.283123224     A.U. after    1 cycles

 The electronic state is 1-A.
 Alpha  occ. eigenvalues --  -19.07316 -19.07259 -14.40775 -14.40413 -10.26881
 Alpha  occ. eigenvalues --  -10.26321 -10.22344 -10.22269 -10.21735 -10.21252
 Alpha  occ. eigenvalues --  -10.16912 -10.16097  -1.07886  -1.03444  -0.96084
 Alpha  occ. eigenvalues --   -0.94405  -0.81588  -0.78781  -0.75304  -0.70609
 Alpha  occ. eigenvalues --   -0.65254  -0.62565  -0.60955  -0.55443  -0.51498
 Alpha  occ. eigenvalues --   -0.50428  -0.48751  -0.47662  -0.47078  -0.46397
 Alpha  occ. eigenvalues --   -0.45230  -0.44936  -0.43055  -0.42440  -0.40976
 Alpha  occ. eigenvalues --   -0.40585  -0.39685  -0.37685  -0.34821  -0.34398
 Alpha  occ. eigenvalues --   -0.30565  -0.27846  -0.26370  -0.25604  -0.24758
 Alpha virt. eigenvalues --   -0.02421   0.00047   0.01026   0.01725   0.02643
 Alpha virt. eigenvalues --    0.02904   0.03740   0.04221   0.04612   0.04996
 Alpha virt. eigenvalues --    0.05753   0.06099   0.06523   0.07387   0.07736

 Mulliken charges:
               1
     1  C   -0.151051
     2  C   -0.098459
     3  C   -0.112377
     4  N    0.151516
     5  H    0.175427
     6  H    0.180308
     7  H    0.227520
     8  C   -0.293858
     9  H    0.181200
    10  H    0.188923
    11  H    0.187155
    12  N    0.155079
    13  C   -0.288837
    14  H    0.173385
    15  H    0.176533
    16  C   -0.143816
    17  H    0.137173
    18  H    0.137523
    19  C   -0.196095
    20  H    0.151554
    21  H    0.138515
    22  C    0.445802
    23  O   -0.764901
    24  O   -0.758220
 Sum of Mulliken charges =  -0.00000

 Dipole moment (field-independent basis, Debye):
    X=              8.8839    Y=            -11.9012    Z=             -5.1571  Tot=             15.7212
 Quadrupole moment (field-independent basis, Debye-Ang):
   XX=            -52.4575   YY=            -84.3035   ZZ=            -71.7655
   XY=             16.2622   XZ=              5.3271   YZ=             -4.8281

  Exact polarizability: 161.129  24.827 153.901  10.847 -15.239 161.247
 Approx polarizability: 161.461  24.368 156.171  11.136 -18.250 170.561

                      1                      2                      3
                      A                      A                      A
 Frequencies --     42.5608                52.9355                64.6460
 Red. masses --      5.0865                 3.5783                 3.0488
 Frc consts  --      0.0054                 0.0059                 0.0075
 IR Inten    --     15.7142                11.1316                18.5278

                      4                      5                      6
                      A                      A                      A
 Frequencies --     71.9613                94.8820               133.8613
 Red. masses --      1.3004                 6.0386                 4.9658
 Frc consts  --      0.0040                 0.0320                 0.0524
 IR Inten    --      4.2957                11.3503                10.4737

                      7                      8                      9
                      A                      A                      A
 Frequencies --    210.6786               248.4589               286.2621
 Red. masses --      3.3357                 2.7672                 4.0773
 Frc consts  --      0.0872                 0.1006                 0.1969
 IR Inten    --      6.8800                 4.3270                 6.9498

                     10                     11                     12
                      A                      A                      A
 Frequencies --    317.9589               420.0855               422.2644
 Red. masses --      2.1928                 2.1194                 2.9446
 Frc consts  --      0.1306                 0.2204                 0.3093
 IR Inten    --      0.7916                 2.8999                 4.4381

                     13                     14                     15
                      A                      A                      A
 Frequencies --    503.0083               583.1305               602.6102
 Red. masses --      3.3844                 3.7257                 3.2084
 Frc consts  --      0.5045                 0.7464                 0.6865
 IR Inten    --      6.4761                21.1172                 3.3193

                     16                     17                     18
                      A                      A                      A
 Frequencies --    629.0415               652.0920               690.3355
 Red. masses --      2.9623                 2.6599                 3.8928
 Frc consts  --      0.6906                 0.6664                 1.0930
 IR Inten    --     25.6739                36.5689                 3.0487

                     19                     20                     21
                      A                      A                      A
 Frequencies --    713.6257               744.1177               841.7155
 Red. masses --      4.2068                 1.2394                 3.2141
 Frc consts  --      1.2622                 0.4043                 1.3417
 IR Inten    --      4.6441                64.2651                58.8787

                     22                     23                     24
                      A                      A                      A
 Frequencies --    850.6515               867.6292               888.2535
 Red. masses --      1.5431                 1.4112                 1.6288
 Frc consts  --      0.6579                 0.6259                 0.7572
 IR Inten    --     53.4413                 0.8462                12.9591

                     25                     26                     27
                      A                      A                      A
 Frequencies --    912.7204               981.5478              1045.8488
 Red. masses --      3.0533                 2.8198                 2.5960
 Frc consts  --      1.4987                 1.6007                 1.6730
 IR Inten    --      8.5346                13.7726                 9.4433

                     28                     29                     30
                      A                      A                      A
 Frequencies --   1047.5477              1068.6253              1084.2999
 Red. masses --      3.2175                 2.3147                 2.1380
 Frc consts  --      2.0802                 1.5574                 1.4810
 IR Inten    --      5.1398                 3.4874                11.3982

                     31                     32                     33
                      A                      A                      A
 Frequencies --   1106.1218              1120.1556              1159.4497
 Red. masses --      1.2985                 1.4985                 1.3238
 Frc consts  --      0.9360                 1.1078                 1.0485
 IR Inten    --     12.7574                 9.5153                 0.5030

                     34                     35                     36
                      A                      A                      A
 Frequencies --   1172.8715              1191.7411              1238.0700
 Red. masses --      1.6571                 1.4515                 1.2771
 Frc consts  --      1.3431                 1.2146                 1.1534
 IR Inten    --     60.6250               123.3685                 3.6461

                     37                     38                     39
                      A                      A                      A
 Frequencies --   1268.8081              1311.3602              1327.0556
 Red. masses --      1.3415                 1.3628                 1.8979
 Frc consts  --      1.2725                 1.3808                 1.9693
 IR Inten    --     30.7573                 5.5506               116.7611

                     40                     41                     42
                      A                      A                      A
 Frequencies --   1356.4547              1379.5681              1385.8554
 Red. masses --      5.0416                 1.6560                 1.8829
 Frc consts  --      5.4655                 1.8569                 2.1307
 IR Inten    --     13.4033                30.7663                54.7263

                     43                     44                     45
                      A                      A                      A
 Frequencies --   1400.1917              1412.2468              1440.2841
 Red. masses --      2.0065                 2.4180                 2.5109
 Frc consts  --      2.3177                 2.8413                 3.0689
 IR Inten    --    219.0805                 7.3209                 2.1826

                     46                     47                     48
                      A                      A                      A
 Frequencies --   1449.9098              1459.5934              1464.8407
 Red. masses --      1.1425                 1.2132                 1.1781
 Frc consts  --      1.4151                 1.5228                 1.4894
 IR Inten    --     85.5270                26.8802                11.2916

                     49                     50                     51
                      A                      A                      A
 Frequencies --   1468.5430              1485.3795              1489.2601
 Red. masses --      1.0359                 6.0025                 1.1209
 Frc consts  --      1.3163                 7.8030                 1.4647
 IR Inten    --     23.0788              1150.0319                52.8356

                     52                     53                     54
                      A                      A                      A
 Frequencies --   1497.5294              1594.8876              1606.9371
 Red. masses --      1.1546                 3.7647                 3.7917
 Frc consts  --      1.5256                 5.6421                 5.7687
 IR Inten    --     18.9029                74.6650                41.2474

                     55                     56                     57
                      A                      A                      A
 Frequencies --   3030.5535              3049.0418              3074.6425
 Red. masses --      1.0637                 1.0612                 1.0990
 Frc consts  --      5.7559                 5.8129                 6.1211
 IR Inten    --     24.8230                36.0130                23.6577

                     58                     59                     60
                      A                      A                      A
 Frequencies --   3078.0145              3084.3574              3093.6200
 Red. masses --      1.0319                 1.0812                 1.0794
 Frc consts  --      5.7603                 6.0604                 6.0866
 IR Inten    --     20.8590                17.2673                58.0456

                     61                     62                     63
                      A                      A                      A
 Frequencies --   3139.1825              3152.2975              3177.5170
 Red. masses --      1.1086                 1.1072                 1.1060
 Frc consts  --      6.4366                 6.4825                 6.5795
 IR Inten    --     15.4243                 4.6473                 2.2897

                     64                     65                     66
                      A                      A                      A
 Frequencies --   3283.1089              3292.7620              3299.5992
 Red. masses --      1.0942                 1.1019                 1.1116
 Frc consts  --      6.9492                 7.0392                 7.1302
 IR Inten    --     21.3881                62.8094                 0.4095

 - Thermochemistry -
 -------------------
 Temperature   298.150 Kelvin.  Pressure   1.00000 Atm.
 Atom     1 has atomic number  6 and mass  12.00000

 Molecular mass:   168.08988 amu.
 Principal axes and moments of inertia in atomic units:
                           1         2         3
     Eigenvalues --  1363.343692207.199652822.62181
           X            0.99669   0.08096   0.00780
           Y           -0.08078   0.99650  -0.02156
           Z           -0.00952   0.02086   0.99974
 This molecule is an asymmetric top.
 Rotational symmetry number  1.
 Warning -- assumption of classical behavior for rotation
           may cause significant error
 Rotational temperatures (Kelvin)      0.06353     0.03924     0.03069
 Rotational constants (GHZ):           1.32376     0.81766     0.63938
 Zero-point vibrational energy     524055.1 (Joules/Mol)
                                  125.25217 (Kcal/Mol)
 Warning -- explicit consideration of  15 degrees of freedom as
           vibrations may cause significant error
 Vibrational temperatures:     61.24    76.16    93.01   103.54   136.51
          (Kelvin)            192.60   303.12   357.48   411.87   457.47
                              604.41   607.54   723.72   838.99   867.02
                              905.05   938.22   993.24  1026.75  1070.62
                             1211.04  1223.90  1248.32  1278.00  1313.20
                             1412.23  1504.74  1507.19  1537.51  1560.07
                             1591.46  1611.65  1668.19  1687.50  1714.65
                             1781.31  1825.53  1886.75  1909.34  1951.64
                             1984.89  1993.94  2014.56  2031.91  2072.25
                             2086.10  2100.03  2107.58  2112.91  2137.13
                             2142.71  2154.61  2294.69  2312.02  4360.29
                             4386.89  4423.72  4428.58  4437.70  4451.03
                             4516.58  4535.45  4571.74  4723.66  4737.55
                             4747.39

 Zero-point correction=                           0.199602 (Hartree/Particle)
 Thermal correction to Energy=                    0.211418
 Thermal correction to Enthalpy=                  0.212362
 Thermal correction to Gibbs Free Energy=         0.160177
 Sum of electronic and zero-point Energies=           -572.083521
 Sum of electronic and thermal Energies=              -572.071705
 Sum of electronic and thermal Enthalpies=            -572.070761
 Sum of electronic and thermal Free Energies=         -572.122946

                     E (Thermal)             CV                S
                      KCal/Mol        Cal/Mol-Kelvin    Cal/Mol-Kelvin
 Total                  132.667             42.650            109.833
 Electronic               0.000              0.000              0.000
 Translational            0.889              2.981             41.266
 Rotational               0.889              2.981             30.519
 Vibrational            130.889             36.688             38.048
 Vibration     1          0.595              1.980              5.136
 Vibration     2          0.596              1.976              4.705
 Vibration     3          0.597              1.971              4.310
 Vibration     4          0.598              1.967              4.099
 Vibration     5          0.603              1.953              3.557
 Vibration     6          0.613              1.920              2.890
 Vibration     7          0.643              1.825              2.038
 Vibration     8          0.662              1.765              1.741
 Vibration     9          0.684              1.699              1.496
 Vibration    10          0.704              1.639              1.321
 Vibration    11          0.783              1.427              0.892
 Vibration    12          0.785              1.422              0.884
 Vibration    13          0.858              1.243              0.651
 Vibration    14          0.940              1.068              0.480
 Vibration    15          0.961              1.026              0.445

                           ! Non-Optimized Parameters !
 Normal termination of Gaussian 16 at Wed Oct 11 21:18:56 2023.
