 Gaussian 16, Revision A.03,
 Gaussian 16:  ES64L-G16RevA.03 25-Dec-2016

 ------------------------------------
 #p 6-311+g(2d,p) nosymm em=gd3 m062x
 ------------------------------------

 -------------------
 Title Card Required
 -------------------
 Symbolic Z-matrix:
 Charge =  0 Multiplicity = 1

                          Input orientation:
 ---------------------------------------------------------------------
 Center     Atomic      Atomic             Coordinates (Angstroms)
 Number     Number       Type             X           Y           Z
 ---------------------------------------------------------------------
      1          6           0        4.787407    8.882723    8.691109
      2          6           0        5.303449    9.457646    7.534868
      3          6           0        6.164054   10.547574    9.309367
      4          7           0        5.335858    9.569481    9.775630
      5          1           0        4.091810    8.072748    8.805199
      6          1           0        5.121412    9.220217    6.503848
      7          1           0        6.746206   11.261377    9.908949
      8          6           0        4.953803    9.411846   11.167163
      9          1           0        4.253263   10.236933   11.460149
     10          1           0        4.461026    8.444948   11.346787
     11          1           0        5.837596    9.499578   11.839597
     12          7           0        6.166841   10.477662    7.934524
     13          6           0        6.755019   11.509402    7.079983
     14          1           0        7.378663   11.022562    6.297396
     15          1           0        7.438660   12.145724    7.708806
     16          6           0        5.692298   12.422793    6.431451
     17          1           0        6.215230   13.348926    6.100371
     18          1           0        5.288656   11.948756    5.518100
     19          6           0        4.537240   12.818318    7.352244
     20          1           0        3.717943   12.078248    7.307063
     21          1           0        4.096407   13.781197    7.032162
     22          6           0        4.997969   12.976303    8.806663
     23          8           0        5.993484   13.677935    9.034217
     24          8           0        4.382556   12.287076    9.652869
 ---------------------------------------------------------------------

 SCF Done:  E(RM062X) =  -571.931218954     A.U. after   14 cycles

 Alpha  occ. eigenvalues --  -19.51332 -19.51252 -14.86629 -14.86099 -10.67499
 Alpha  occ. eigenvalues --  -10.62766 -10.62560 -10.61550 -10.60484 -10.57537
 Alpha  occ. eigenvalues --  -10.54434 -10.50691  -1.19343  -1.10937  -1.08078
 Alpha  occ. eigenvalues --   -1.00848  -0.92168  -0.88996  -0.85094  -0.79805
 Alpha  occ. eigenvalues --   -0.74431  -0.72046  -0.69180  -0.64243  -0.59807
 Alpha  occ. eigenvalues --   -0.58047  -0.56482  -0.55699  -0.55452  -0.54272
 Alpha  occ. eigenvalues --   -0.51846  -0.51668  -0.49624  -0.48252  -0.46662
 Alpha  occ. eigenvalues --   -0.44870  -0.44423  -0.42002  -0.39760  -0.38671
 Alpha  occ. eigenvalues --   -0.37290  -0.33341  -0.26935  -0.26376  -0.26108
 Alpha virt. eigenvalues --   -0.01660  -0.00293  -0.00019   0.00964   0.01612
 Alpha virt. eigenvalues --    0.02670   0.03127   0.03690   0.04112   0.05123
 Alpha virt. eigenvalues --    0.05482   0.06715   0.06996   0.07508   0.07557

 Mulliken charges:
               1
     1  C   -0.126706
     2  C   -0.121284
     3  C   -0.323557
     4  N    0.349665
     5  H    0.155282
     6  H    0.163006
     7  H    0.258585
     8  C   -0.459066
     9  H    0.242257
    10  H    0.161791
    11  H    0.182074
    12  N    0.255445
    13  C   -0.405426
    14  H    0.179705
    15  H    0.223611
    16  C   -0.343736
    17  H    0.185452
    18  H    0.159925
    19  C   -0.232307
    20  H    0.170059
    21  H    0.167941
    22  C    0.257291
    23  O   -0.560551
    24  O   -0.539457
 Sum of Mulliken charges =  -0.00000

 Dipole moment (field-independent basis, Debye):
    X=              1.2660    Y=             -9.4398    Z=             -1.9590  Tot=              9.7237
 Quadrupole moment (field-independent basis, Debye-Ang):
   XX=            -58.3207   YY=           -288.8601   ZZ=            -94.7121
   XY=            -34.0832   XZ=              0.8364   YZ=           -114.0785

 Normal termination of Gaussian 16 at Mon Jul 10 19:15:09 2023.
