 Gaussian 16, Revision A.03,
 Gaussian 16:  ES64L-G16RevA.03 25-Dec-2016

 ------------------------------------
 #p 6-311+g(2d,p) nosymm em=gd3 m062x
 ------------------------------------

 -------------------
 Title Card Required
 -------------------
 Symbolic Z-matrix:
 Charge =  0 Multiplicity = 1

                          Input orientation:
 ---------------------------------------------------------------------
 Center     Atomic      Atomic             Coordinates (Angstroms)
 Number     Number       Type             X           Y           Z
 ---------------------------------------------------------------------
      1         15           0        6.329534   12.861526   12.471492
      2          8           0        7.104123   11.634319   12.255673
      3          8           0        4.763566   12.692243   12.268883
      4          1           0        4.561212   12.598947   11.220606
      5          8           0        6.461359   13.350253   13.983215
      6          1           0        5.905125   14.216538   14.070411
      7          8           0        6.765357   14.133946   11.632884
      8          1           0        6.472877   13.992277   10.618332
 ---------------------------------------------------------------------

 SCF Done:  E(RM062X) =  -644.135877791     A.U. after   12 cycles

 Alpha  occ. eigenvalues --  -78.16844 -19.69547 -19.69195 -19.68136 -19.58015
 Alpha  occ. eigenvalues --   -6.97634  -5.09549  -5.09542  -5.09286  -1.24579
 Alpha  occ. eigenvalues --   -1.17276  -1.16770  -1.08386  -0.72714  -0.65740
 Alpha  occ. eigenvalues --   -0.63801  -0.58918  -0.53350  -0.51801  -0.50003
 Alpha  occ. eigenvalues --   -0.46281  -0.45376  -0.45118  -0.37924  -0.36883
 Alpha virt. eigenvalues --   -0.04077   0.00903   0.02881   0.04624   0.08177
 Alpha virt. eigenvalues --    0.08889   0.10596   0.12829   0.15896   0.17333
 Alpha virt. eigenvalues --    0.17451   0.18398   0.19468   0.19876   0.21186

 Mulliken charges:
               1
     1  P    1.287206
     2  O   -0.613301
     3  O   -0.557960
     4  H    0.309244
     5  O   -0.485825
     6  H    0.304074
     7  O   -0.554085
     8  H    0.310646
 Sum of Mulliken charges =  -0.00000

 Dipole moment (field-independent basis, Debye):
    X=             -3.3323    Y=              3.6636    Z=             -2.8197  Tot=              5.6988
 Quadrupole moment (field-independent basis, Debye-Ang):
   XX=            -79.4367   YY=             56.0698   ZZ=            -97.6863
   XY=            -18.9293   XZ=            -56.6413   YZ=             10.2389

 Normal termination of Gaussian 16 at Mon Jul 10 19:13:40 2023.
