                               Psi4 1.3.2 release

  ==> Input File <==

--------------------------------------------------------------------------
memory 100 GB

molecule dimer {
0 1
P      5.38300000    5.28300000    5.08400000
O      5.40100000    6.71400000    4.82900000
O      5.56900000    4.81000000    6.59700000
H      6.13700000    5.50300000    7.11100000
O      4.07800000    4.45600000    4.67700000
H      3.37700000    4.57200000    5.41700000
O      6.50300000    4.52200000    4.25500000
H      6.38300000    3.50900000    4.39100000
--
0 1
O      7.15700000    6.91300000    7.81100000
H      6.63800000    7.67600000    7.53500000
H      7.94500000    6.94300000    7.26100000
}

set {
    scf_type DF
    freeze_core True
    basis aug-cc-pVTZ
}

energy('sapt2+(3)dmp2')
--------------------------------------------------------------------------

  //              Dimer HF             //
    Molecular point group: c1
  Charge       = 0
  Multiplicity = 1
  Basis Set: AUG-CC-PVTZ
    Blend: AUG-CC-PVTZ
  Basis Set: (AUG-CC-PVTZ AUX)
    Blend: AUG-CC-PVTZ-JKFIT
  @DF-RHF Final Energy:  -718.27647362468076
    Total Energy =                       -718.2764736246807615
  Basis Set: (AUG-CC-PVTZ AUX)
    Blend: AUG-CC-PVTZ-RI
	 Reference Energy          =    -718.2764736246807615 [Eh]
	 Singles Energy            =      -0.0000000000000000 [Eh]
	 Same-Spin Energy          =      -0.3643409563672273 [Eh]
	 Opposite-Spin Energy      =      -1.0466504580392582 [Eh]
	 Correlation Energy        =      -1.4109914144064855 [Eh]
	 Total Energy              =    -719.6874650390872148 [Eh]
	 SCS Total Energy          =    -719.6539011597835724 [Eh]
  //            Monomer A HF           //
    Molecular point group: c1
  Multiplicity = 1
  Basis Set: AUG-CC-PVTZ
    Blend: AUG-CC-PVTZ
  Basis Set: (AUG-CC-PVTZ AUX)
    Blend: AUG-CC-PVTZ-JKFIT
  @DF-RHF Final Energy:  -642.20163170960325
    Total Energy =                       -642.2016317096032481
  Basis Set: (AUG-CC-PVTZ AUX)
	 Singles Energy            =      -0.0000000000000000 [Eh]
	 Same-Spin Energy          =      -0.2971155294138488 [Eh]
	 Opposite-Spin Energy      =      -0.8421856535252031 [Eh]
	 Correlation Energy        =      -1.1393011829390520 [Eh]
	 Total Energy              =    -643.3409328925423551 [Eh]
	 SCS Total Energy          =    -643.3112930036380703 [Eh]
  //            Monomer B HF           //
    Molecular point group: c1

    Geometry (in Angstrom), charge = 0, multiplicity = 1:

       Center              X                  Y                   Z               Mass
    ------------   -----------------  -----------------  -----------------  -----------------
      Gh(P)          -0.278235061628    -0.153438188384    -0.433790676642    30.973761998420
      Gh(O)          -0.260235061628     1.277561811616    -0.688790676642    15.994914619570
      Gh(O)          -0.092235061628    -0.626438188384     1.079209323358    15.994914619570
      Gh(H)           0.475764938372     0.066561811616     1.593209323358     1.007825032230
      Gh(O)          -1.583235061628    -0.980438188384    -0.840790676642    15.994914619570
      Gh(H)          -2.284235061628    -0.864438188384    -0.100790676642     1.007825032230
      Gh(O)           0.841764938372    -0.914438188384    -1.262790676642    15.994914619570
      Gh(H)           0.721764938372    -1.927438188384    -1.126790676642     1.007825032230
         O            1.495764938372     1.476561811616     2.293209323358    15.994914619570
         H            0.976764938372     2.239561811616     2.017209323358     1.007825032230
         H            2.283764938372     1.506561811616     1.743209323358     1.007825032230

  Charge       = 0
  Multiplicity = 1
  Basis Set: AUG-CC-PVTZ
    Blend: AUG-CC-PVTZ
  Basis Set: (AUG-CC-PVTZ AUX)
    Blend: AUG-CC-PVTZ-JKFIT

    Orbital Energies [Eh]
    ---------------------

    Doubly Occupied:

       1A    -20.567827     2A     -1.350778     3A     -0.715230
       4A     -0.583589     5A     -0.509888

  @DF-RHF Final Energy:   -76.06033818116136

   => Energetics <=

    Nuclear Repulsion Energy =              9.1459094840832762
    One-Electron Energy =                -122.9578677615788820
    Two-Electron Energy =                  37.7516200963342499
    Total Energy =                        -76.0603381811613559

  Dipole Moment: [D]
     X:     0.4539      Y:     1.3360      Z:    -1.3918     Total:     1.9820

  Basis Set: (AUG-CC-PVTZ AUX)
    Blend: AUG-CC-PVTZ-RI
	 Reference Energy          =     -76.0603381811613559 [Eh]
	 Singles Energy            =      -0.0000000000000000 [Eh]
	 Same-Spin Energy          =      -0.0652775098394131 [Eh]
	 Opposite-Spin Energy      =      -0.2038918110044471 [Eh]
	 Correlation Energy        =      -0.2691693208438602 [Eh]
	 Total Energy              =     -76.3295075020052138 [Eh]

	 ================> DF-SCS-MP2 Energies <==================
	-----------------------------------------------------------
	 SCS Same-Spin Scale       =       0.3333333333333333 [-]
	 SCS Opposite-Spin Scale   =       1.2000000000000000 [-]
	 SCS Same-Spin Energy      =      -0.0217591699464710 [Eh]
	 SCS Opposite-Spin Energy  =      -0.2446701732053365 [Eh]
	 SCS Correlation Energy    =      -0.2664293431518076 [Eh]
	 SCS Total Energy          =     -76.3267675243131691 [Eh]
	-----------------------------------------------------------

    SAPT Results
  --------------------------------------------------------------------------------------------------------
    Electrostatics                -21.00897598 [mEh]     -13.18333146 [kcal/mol]     -55.15905884 [kJ/mol]
      Elst10,r                    -21.74125889 [mEh]     -13.64284592 [kcal/mol]     -57.08166735 [kJ/mol]
      Elst12,r                      0.46778327 [mEh]       0.29353843 [kcal/mol]       1.22816481 [kJ/mol]
      Elst13,r                      0.26449964 [mEh]       0.16597603 [kcal/mol]       0.69444370 [kJ/mol]

    Exchange                       17.38200701 [mEh]      10.90737408 [kcal/mol]      45.63645313 [kJ/mol]
      Exch10                       14.75426301 [mEh]       9.25843982 [kcal/mol]      38.73731219 [kJ/mol]
      Exch10(S^2)                  14.62420361 [mEh]       9.17682631 [kcal/mol]      38.39584128 [kJ/mol]
      Exch11(S^2)                   0.19765874 [mEh]       0.12403273 [kcal/mol]       0.51895295 [kJ/mol]
      Exch12(S^2)                   2.43008527 [mEh]       1.52490153 [kcal/mol]       6.38018799 [kJ/mol]

    Induction                      -8.16889350 [mEh]      -5.12605806 [kcal/mol]     -21.44742694 [kJ/mol]
      Ind20,r                      -8.74468899 [mEh]      -5.48737519 [kcal/mol]     -22.95917778 [kJ/mol]
      Ind22                        -1.23586863 [mEh]      -0.77551927 [kcal/mol]      -3.24477264 [kJ/mol]
      Exch-Ind20,r                  4.15089893 [mEh]       2.60472840 [kcal/mol]      10.89818364 [kJ/mol]
      Exch-Ind22                    0.58663788 [mEh]       0.36812082 [kcal/mol]       1.54021753 [kJ/mol]
      delta HF,r (2)               -2.92294798 [mEh]      -1.83417755 [kcal/mol]      -7.67419886 [kJ/mol]
      delta MP2,r (2)              -0.00292471 [mEh]      -0.00183528 [kcal/mol]      -0.00767883 [kJ/mol]

    Dispersion                     -5.85263223 [mEh]      -3.67258217 [kcal/mol]     -15.36608380 [kJ/mol]
      Disp20                       -5.95431830 [mEh]      -3.73639114 [kcal/mol]     -15.63306054 [kJ/mol]
      Disp30                        0.21435853 [mEh]       0.13451201 [kcal/mol]       0.56279824 [kJ/mol]
      Disp21                        0.19181143 [mEh]       0.12036349 [kcal/mol]       0.50360084 [kJ/mol]
      Disp22 (SDQ)                 -0.17193291 [mEh]      -0.10788953 [kcal/mol]      -0.45140979 [kJ/mol]
      Disp22 (T)                   -0.96979176 [mEh]      -0.60855352 [kcal/mol]      -2.54618791 [kJ/mol]
      Est. Disp22 (T)              -1.12258684 [mEh]      -0.70443388 [kcal/mol]      -2.94735135 [kJ/mol]
      Exch-Disp20                   0.99003586 [mEh]       0.62125688 [kcal/mol]       2.59933880 [kJ/mol]

  Total HF                        -14.50373392 [mEh]      -9.10123044 [kcal/mol]     -38.07954815 [kJ/mol]
  Total SAPT0                     -19.46801635 [mEh]     -12.21636470 [kcal/mol]     -51.11326989 [kJ/mol]
  Total SAPT2                     -17.02171983 [mEh]     -10.68129045 [kcal/mol]     -44.69051925 [kJ/mol]
  Total SAPT2+                    -18.12442815 [mEh]     -11.37325037 [kcal/mol]     -47.58567955 [kJ/mol]
  Total SAPT2+(3)                 -17.64556999 [mEh]     -11.07276234 [kcal/mol]     -46.32843762 [kJ/mol]
  Total SAPT2+dMP2                -18.12735286 [mEh]     -11.37508566 [kcal/mol]     -47.59335838 [kJ/mol]
  Total SAPT2+(3)dMP2             -17.64849470 [mEh]     -11.07459762 [kcal/mol]     -46.33611645 [kJ/mol]

  Special recipe for scaled SAPT0 (see Manual):
    Electrostatics sSAPT0         -21.74125889 [mEh]     -13.64284592 [kcal/mol]     -57.08166735 [kJ/mol]
    Exchange sSAPT0                14.75426301 [mEh]       9.25843982 [kcal/mol]      38.73731219 [kJ/mol]
    Induction sSAPT0               -7.40500295 [mEh]      -4.64670950 [kcal/mol]     -19.44183255 [kJ/mol]
    Dispersion sSAPT0              -4.93763236 [mEh]      -3.09841109 [kcal/mol]     -12.96375199 [kJ/mol]
  Total sSAPT0                    -19.32963119 [mEh]     -12.12952670 [kcal/mol]     -50.74993970 [kJ/mol]
  --------------------------------------------------------------------------------------------------------

*** Psi4 exiting successfully. Buy a developer a beer!
