 Gaussian 16, Revision A.03,
 Gaussian 16:  ES64L-G16RevA.03 25-Dec-2016

 ----------------------------------------
 #p M052X/6-31G* scrf=(smd,solvent=water)
 ----------------------------------------

 -------------------
 Title Card Required
 -------------------
 Symbolic Z-matrix:
 Charge =  0 Multiplicity = 1

                         Standard orientation:
 ---------------------------------------------------------------------
 Center     Atomic      Atomic             Coordinates (Angstroms)
 Number     Number       Type             X           Y           Z
 ---------------------------------------------------------------------
      1          6           0       -2.483980   -0.960648   -1.170244
      2          1           0       -3.536908   -1.108148   -0.944017
      3          1           0       -2.368636   -0.445041   -2.120472
      4          1           0       -1.963248   -1.914625   -1.191267
      5          6           0       -2.611177    1.194674   -0.046566
      6          1           0       -3.668162    0.986282    0.100760
      7          1           0       -2.233645    1.788269    0.779765
      8          1           0       -2.455519    1.710792   -0.990866
      9          6           0       -2.039623   -0.818192    1.218861
     10          1           0       -1.466504   -1.741467    1.185836
     11          1           0       -1.682272   -0.176662    2.017869
     12          1           0       -3.095979   -1.033101    1.360903
     13          6           0       -0.415434    0.091435   -0.430965
     14          1           0       -0.408883    0.565964   -1.411590
     15          1           0        0.001769   -0.910019   -0.525184
     16          6           0        0.378960    0.915220    0.567436
     17          1           0        0.394689    0.430233    1.543047
     18          1           0       -0.071559    1.900845    0.691274
     19          6           0        1.811642    1.095847    0.064380
     20          1           0        2.342817    1.765234    0.748545
     21          1           0        1.814386    1.582041   -0.912954
     22          7           0       -1.881698   -0.112036   -0.091742
     23          6           0        2.650565   -0.184494   -0.020806
     24          8           0        2.422500   -1.110097    0.808052
     25          8           0        3.555478   -0.217326   -0.905806
 ---------------------------------------------------------------------

 SCF Done:  E(RM052X) =  -480.917314845     A.U. after   13 cycles

 The electronic state is 1-A.
 Alpha  occ. eigenvalues --  -19.61213 -19.60859 -14.92289 -10.65721 -10.61853
 Alpha  occ. eigenvalues --  -10.61174 -10.61133 -10.61113 -10.57083 -10.55867
 Alpha  occ. eigenvalues --   -1.13417  -1.12993  -1.03214  -0.90478  -0.84360
 Alpha  occ. eigenvalues --   -0.84320  -0.81639  -0.73126  -0.68509  -0.60170
 Alpha  occ. eigenvalues --   -0.59784  -0.58478  -0.57149  -0.54074  -0.51276
 Alpha  occ. eigenvalues --   -0.50171  -0.49977  -0.48824  -0.47308  -0.46282
 Alpha  occ. eigenvalues --   -0.46171  -0.45979  -0.45717  -0.44354  -0.42555
 Alpha  occ. eigenvalues --   -0.40600  -0.39712  -0.31253  -0.30373  -0.29965
 Alpha virt. eigenvalues --    0.10862   0.11449   0.15410   0.17002   0.17195
 Alpha virt. eigenvalues --    0.17604   0.18727   0.19200   0.20306   0.21952
 Alpha virt. eigenvalues --    0.22345   0.22788   0.23727   0.25107   0.25429

 Mulliken charges:
               1
     1  C   -0.375685
     2  H    0.241822
     3  H    0.242269
     4  H    0.243269
     5  C   -0.381147
     6  H    0.241943
     7  H    0.246163
     8  H    0.241815
     9  C   -0.380426
    10  H    0.242475
    11  H    0.245907
    12  H    0.241541
    13  C   -0.182901
    14  H    0.235438
    15  H    0.232548
    16  C   -0.350063
    17  H    0.195115
    18  H    0.200247
    19  C   -0.420904
    20  H    0.207039
    21  H    0.178812
    22  N   -0.428904
    23  C    0.547999
    24  O   -0.724603
    25  O   -0.739769
 Sum of Mulliken charges =  -0.00000

 Dipole moment (field-independent basis, Debye):
    X=            -23.6585    Y=              4.1585    Z=              0.0554  Tot=             24.0212
 Quadrupole moment (field-independent basis, Debye-Ang):
   XX=            -87.6685   YY=            -59.4695   ZZ=            -60.6646
   XY=             13.3169   XZ=              6.2721   YZ=              3.0447

 Normal termination of Gaussian 16 at Wed Oct 11 20:23:33 2023.
