 Gaussian 16, Revision A.03,
 Gaussian 16:  ES64L-G16RevA.03 25-Dec-2016

 -----------------------------------------------------------------
 #p opt freq b3lyp/6-311+g(2d,p) scrf=(smd,solvent=water) em=gd3bj
 -----------------------------------------------------------------

 -------------------
 Title Card Required
 -------------------
 Symbolic Z-matrix:
 Charge =  0 Multiplicity = 1

 SCF Done:  E(RB3LYP) =  -481.197634734     A.U. after   12 cycles
 SCF Done:  E(RB3LYP) =  -481.197644461     A.U. after   10 cycles
 SCF Done:  E(RB3LYP) =  -481.194170499     A.U. after   11 cycles
 SCF Done:  E(RB3LYP) =  -481.197698160     A.U. after    9 cycles
 SCF Done:  E(RB3LYP) =  -481.197703089     A.U. after    8 cycles
 SCF Done:  E(RB3LYP) =  -481.197702437     A.U. after    7 cycles
 SCF Done:  E(RB3LYP) =  -481.197703655     A.U. after    7 cycles
 SCF Done:  E(RB3LYP) =  -481.197703432     A.U. after    7 cycles
 Optimization completed.
    -- Stationary point found.
 Normal termination of Gaussian 16 at Wed Oct 11 20:16:11 2023.

 ----------------------------------------------------------------------
 #P Geom=AllCheck Guess=TCheck SCRF=Check GenChk RB3LYP/6-311+G(2d,p) F
 req
 ----------------------------------------------------------------------

 Structure from the checkpoint file:  "/data0/home/software/g16/scratch/Gau-2524515.chk"
 -------------------
 Title Card Required
 -------------------
 Charge =  0 Multiplicity = 1

                         Standard orientation:
 ---------------------------------------------------------------------
 Center     Atomic      Atomic             Coordinates (Angstroms)
 Number     Number       Type             X           Y           Z
 ---------------------------------------------------------------------
      1          6           0       -2.483980   -0.960648   -1.170244
      2          1           0       -3.536908   -1.108148   -0.944017
      3          1           0       -2.368636   -0.445041   -2.120472
      4          1           0       -1.963248   -1.914625   -1.191267
      5          6           0       -2.611177    1.194674   -0.046566
      6          1           0       -3.668162    0.986282    0.100760
      7          1           0       -2.233645    1.788269    0.779765
      8          1           0       -2.455519    1.710792   -0.990866
      9          6           0       -2.039623   -0.818192    1.218861
     10          1           0       -1.466504   -1.741467    1.185836
     11          1           0       -1.682272   -0.176662    2.017869
     12          1           0       -3.095979   -1.033101    1.360903
     13          6           0       -0.415434    0.091435   -0.430965
     14          1           0       -0.408883    0.565964   -1.411590
     15          1           0        0.001769   -0.910019   -0.525184
     16          6           0        0.378960    0.915220    0.567436
     17          1           0        0.394689    0.430233    1.543047
     18          1           0       -0.071559    1.900845    0.691274
     19          6           0        1.811642    1.095847    0.064380
     20          1           0        2.342817    1.765234    0.748545
     21          1           0        1.814386    1.582041   -0.912954
     22          7           0       -1.881698   -0.112036   -0.091742
     23          6           0        2.650565   -0.184494   -0.020806
     24          8           0        2.422500   -1.110097    0.808052
     25          8           0        3.555478   -0.217326   -0.905806
 ---------------------------------------------------------------------

 SCF Done:  E(RB3LYP) =  -481.197703432     A.U. after    1 cycles

 The electronic state is 1-A.
 Alpha  occ. eigenvalues --  -19.07397 -19.07303 -14.43437 -10.26367 -10.21349
 Alpha  occ. eigenvalues --  -10.20799 -10.20764 -10.20737 -10.16920 -10.16305
 Alpha  occ. eigenvalues --   -1.03492  -1.01309  -0.94475  -0.80081  -0.74187
 Alpha  occ. eigenvalues --   -0.74156  -0.72025  -0.64262  -0.59878  -0.52410
 Alpha  occ. eigenvalues --   -0.52059  -0.51118  -0.49821  -0.46941  -0.44393
 Alpha  occ. eigenvalues --   -0.43407  -0.43214  -0.42631  -0.40814  -0.39768
 Alpha  occ. eigenvalues --   -0.39541  -0.39484  -0.39345  -0.38288  -0.36597
 Alpha  occ. eigenvalues --   -0.34713  -0.33988  -0.27019  -0.25673  -0.24867
 Alpha virt. eigenvalues --    0.00634   0.01675   0.02431   0.02869   0.03505
 Alpha virt. eigenvalues --    0.04490   0.04549   0.04781   0.05442   0.05854
 Alpha virt. eigenvalues --    0.06102   0.07430   0.07833   0.08553   0.08646

 Mulliken charges:
               1
     1  C   -0.306120
     2  H    0.189245
     3  H    0.192387
     4  H    0.192396
     5  C   -0.274846
     6  H    0.187582
     7  H    0.189821
     8  H    0.193388
     9  C   -0.277273
    10  H    0.197346
    11  H    0.190210
    12  H    0.188915
    13  C   -0.179152
    14  H    0.175940
    15  H    0.182376
    16  C   -0.120325
    17  H    0.145584
    18  H    0.138922
    19  C   -0.380894
    20  H    0.151875
    21  H    0.142365
    22  N   -0.050033
    23  C    0.488333
    24  O   -0.770725
    25  O   -0.787317
 Sum of Mulliken charges =   0.00000

 Dipole moment (field-independent basis, Debye):
    X=            -24.2012    Y=              4.6152    Z=              0.1228  Tot=             24.6376
 Quadrupole moment (field-independent basis, Debye-Ang):
   XX=            -92.6207   YY=            -61.7589   ZZ=            -62.9523
   XY=             14.4896   XZ=              6.6950   YZ=              3.2144

  Exact polarizability: 142.558  -0.382 136.890  -8.977  -5.539 136.287
 Approx polarizability: 135.728   0.722 134.149  -9.363  -6.308 136.844

                      1                      2                      3
                      A                      A                      A
 Frequencies --     48.9935                58.0482                76.8600
 Red. masses --     10.6578                 3.4830                 4.1705
 Frc consts  --      0.0151                 0.0069                 0.0145
 IR Inten    --      0.6745                 7.9642                30.1966

                      4                      5                      6
                      A                      A                      A
 Frequencies --    131.4246               199.4026               237.4501
 Red. masses --      2.2331                 2.5950                 1.6754
 Frc consts  --      0.0227                 0.0608                 0.0557
 IR Inten    --      8.1758                 2.4631                 7.3315

                      7                      8                      9
                      A                      A                      A
 Frequencies --    252.8314               288.8508               308.8123
 Red. masses --      1.4031                 1.0773                 1.0773
 Frc consts  --      0.0528                 0.0530                 0.0605
 IR Inten    --      2.3500                 0.3543                 0.0792

                     10                     11                     12
                      A                      A                      A
 Frequencies --    326.0788               371.6176               379.7442
 Red. masses --      3.1640                 2.3109                 2.4874
 Frc consts  --      0.1982                 0.1880                 0.2113
 IR Inten    --      2.0608                 0.0976                 0.1115

                     13                     14                     15
                      A                      A                      A
 Frequencies --    459.9193               462.6910               492.9799
 Red. masses --      2.4971                 2.3489                 3.3159
 Frc consts  --      0.3112                 0.2963                 0.4748
 IR Inten    --      0.6235                 0.3588                 4.2472

                     16                     17                     18
                      A                      A                      A
 Frequencies --    560.0901               596.6546               669.7863
 Red. masses --      3.0457                 3.6640                 2.3317
 Frc consts  --      0.5629                 0.7685                 0.6163
 IR Inten    --      8.1709                27.5428                 6.3757

                     19                     20                     21
                      A                      A                      A
 Frequencies --    767.4319               802.1988               880.7528
 Red. masses --      3.4537                 1.6416                 3.9943
 Frc consts  --      1.1984                 0.6224                 1.8256
 IR Inten    --      4.7292                45.3068                18.2502

                     22                     23                     24
                      A                      A                      A
 Frequencies --    890.9145               940.9327               966.1593
 Red. masses --      2.4263                 2.6656                 2.6515
 Frc consts  --      1.1347                 1.3905                 1.4583
 IR Inten    --     11.7652                74.9222                23.4259

                     25                     26                     27
                      A                      A                      A
 Frequencies --    977.8495              1030.3382              1078.7126
 Red. masses --      2.7357                 1.9715                 2.1016
 Frc consts  --      1.5412                 1.2331                 1.4408
 IR Inten    --     32.7486                 4.9155                 8.3599

                     28                     29                     30
                      A                      A                      A
 Frequencies --   1089.4055              1090.8188              1151.6971
 Red. masses --      1.8017                 1.3170                 1.2755
 Frc consts  --      1.2598                 0.9233                 0.9968
 IR Inten    --     12.6775                 3.0928                14.1584

                     31                     32                     33
                      A                      A                      A
 Frequencies --   1156.1902              1214.7926              1234.8316
 Red. masses --      1.3651                 1.2917                 1.3768
 Frc consts  --      1.0752                 1.1231                 1.2369
 IR Inten    --      3.1047                 8.2388                 4.2218

                     34                     35                     36
                      A                      A                      A
 Frequencies --   1273.6836              1294.6674              1303.0430
 Red. masses --      1.8470                 1.6182                 1.9056
 Frc consts  --      1.7654                 1.5981                 1.9064
 IR Inten    --      0.6075                20.4893                 0.3330

                     37                     38                     39
                      A                      A                      A
 Frequencies --   1331.6353              1361.2181              1386.7407
 Red. masses --      2.0178                 1.3670                 1.2764
 Frc consts  --      2.1082                 1.4923                 1.4462
 IR Inten    --    170.6580                32.6725                22.8731

                     40                     41                     42
                      A                      A                      A
 Frequencies --   1396.8719              1434.0365              1447.2660
 Red. masses --      2.6817                 1.2830                 1.1377
 Frc consts  --      3.0830                 1.5546                 1.4040
 IR Inten    --    212.0120                15.5780                95.3195

                     43                     44                     45
                      A                      A                      A
 Frequencies --   1454.7069              1458.6322              1473.5247
 Red. masses --      1.1514                 1.1418                 1.1126
 Frc consts  --      1.4355                 1.4313                 1.4233
 IR Inten    --      3.7112                 0.4092                 3.0228

                     46                     47                     48
                      A                      A                      A
 Frequencies --   1477.3141              1478.9951              1483.8526
 Red. masses --      1.0409                 1.0433                 1.3028
 Frc consts  --      1.3384                 1.3446                 1.6901
 IR Inten    --      1.3012                 3.9439               223.4561

                     49                     50                     51
                      A                      A                      A
 Frequencies --   1484.9631              1486.9124              1497.8164
 Red. masses --      1.3333                 2.0177                 1.0697
 Frc consts  --      1.7322                 2.6283                 1.4139
 IR Inten    --    288.2307               692.6822                23.1083

                     52                     53                     54
                      A                      A                      A
 Frequencies --   1506.5288              1509.8178              1518.0786
 Red. masses --      1.0671                 1.1013                 1.0877
 Frc consts  --      1.4270                 1.4792                 1.4768
 IR Inten    --     49.2307                45.1038                74.6941

                     55                     56                     57
                      A                      A                      A
 Frequencies --   3036.4877              3064.5031              3077.0226
 Red. masses --      1.0634                 1.0598                 1.0345
 Frc consts  --      5.7766                 5.8643                 5.7708
 IR Inten    --     26.7487                15.6029                 4.8507

                     58                     59                     60
                      A                      A                      A
 Frequencies --   3078.9044              3081.3665              3082.1176
 Red. masses --      1.0815                 1.0433                 1.0563
 Frc consts  --      6.0403                 5.8361                 5.9119
 IR Inten    --     12.9069                24.2131                32.7715

                     61                     62                     63
                      A                      A                      A
 Frequencies --   3087.8724              3107.4630              3136.6902
 Red. masses --      1.0353                 1.1017                 1.1083
 Frc consts  --      5.8163                 6.2678                 6.4249
 IR Inten    --      2.1739                29.1058                20.9722

                     64                     65                     66
                      A                      A                      A
 Frequencies --   3166.9954              3168.9141              3170.4676
 Red. masses --      1.1080                 1.1086                 1.1081
 Frc consts  --      6.5479                 6.5590                 6.5624
 IR Inten    --      0.8927                 0.4394                 8.0679

                     67                     68                     69
                      A                      A                      A
 Frequencies --   3174.5497              3182.2946              3186.7075
 Red. masses --      1.1081                 1.1075                 1.1068
 Frc consts  --      6.5792                 6.6081                 6.6222
 IR Inten    --     11.2489                 2.2811                 6.6426

 - Thermochemistry -
 -------------------
 Temperature   298.150 Kelvin.  Pressure   1.00000 Atm.
 Atom     1 has atomic number  6 and mass  12.00000

 Molecular mass:   145.11028 amu.
 Principal axes and moments of inertia in atomic units:
                           1         2         3
     Eigenvalues --   697.324142977.686803057.98034
           X            0.99989   0.01409   0.00541
           Y           -0.01448   0.99665   0.08055
           Z           -0.00425  -0.08062   0.99674
 This molecule is an asymmetric top.
 Rotational symmetry number  1.
 Warning -- assumption of classical behavior for rotation
           may cause significant error
 Rotational temperatures (Kelvin)      0.12421     0.02909     0.02832
 Rotational constants (GHZ):           2.58810     0.60609     0.59017
 Zero-point vibrational energy     586516.6 (Joules/Mol)
                                  140.18084 (Kcal/Mol)
 Warning -- explicit consideration of  17 degrees of freedom as
           vibrations may cause significant error
 Vibrational temperatures:     70.49    83.52   110.58   189.09   286.90
          (Kelvin)            341.64   363.77   415.59   444.31   469.15
                              534.67   546.37   661.72   665.71   709.29
                              805.84   858.45   963.67  1104.16  1154.19
                             1267.21  1281.83  1353.79  1390.09  1406.91
                             1482.43  1552.03  1567.41  1569.44  1657.04
                             1663.50  1747.82  1776.65  1832.55  1862.74
                             1874.79  1915.93  1958.49  1995.21  2009.79
                             2063.26  2082.29  2093.00  2098.65  2120.07
                             2125.53  2127.94  2134.93  2136.53  2139.34
                             2155.02  2167.56  2172.29  2184.18  4368.83
                             4409.14  4427.15  4429.86  4433.40  4434.48
                             4442.76  4470.95  4513.00  4556.60  4559.36
                             4561.60  4567.47  4578.61  4584.96

 Zero-point correction=                           0.223392 (Hartree/Particle)
 Thermal correction to Energy=                    0.234728
 Thermal correction to Enthalpy=                  0.235672
 Thermal correction to Gibbs Free Energy=         0.185955
 Sum of electronic and zero-point Energies=           -480.974311
 Sum of electronic and thermal Energies=              -480.962976
 Sum of electronic and thermal Enthalpies=            -480.962031
 Sum of electronic and thermal Free Energies=         -481.011748

                     E (Thermal)             CV                S
                      KCal/Mol        Cal/Mol-Kelvin    Cal/Mol-Kelvin
 Total                  147.294             41.976            104.638
 Electronic               0.000              0.000              0.000
 Translational            0.889              2.981             40.828
 Rotational               0.889              2.981             30.230
 Vibrational            145.516             36.014             33.580
 Vibration     1          0.595              1.978              4.858
 Vibration     2          0.596              1.974              4.522
 Vibration     3          0.599              1.965              3.969
 Vibration     4          0.612              1.922              2.925
 Vibration     5          0.638              1.841              2.139
 Vibration     6          0.656              1.783              1.822
 Vibration     7          0.664              1.758              1.711
 Vibration     8          0.685              1.694              1.481
 Vibration     9          0.698              1.657              1.369
 Vibration    10          0.710              1.623              1.279
 Vibration    11          0.743              1.530              1.073
 Vibration    12          0.750              1.513              1.040
 Vibration    13          0.818              1.339              0.766
 Vibration    14          0.820              1.333              0.758
 Vibration    15          0.849              1.266              0.676
 Vibration    16          0.916              1.118              0.524
 Vibration    17          0.954              1.039              0.455

 Optimization completed.
    -- Stationary point found.
 Normal termination of Gaussian 16 at Wed Oct 11 20:21:07 2023.
