 Gaussian 16, Revision A.03,
 Gaussian 16:  ES64L-G16RevA.03 25-Dec-2016

 -----------------------------------
 #p opt freq B3LYP/6-311G** em=GD3BJ
 -----------------------------------

 -------------------
 Title Card Required
 -------------------
 Symbolic Z-matrix:
 Charge =  0 Multiplicity = 1

 SCF Done:  E(RB3LYP) =  -1007.50050840     A.U. after   14 cycles
 SCF Done:  E(RB3LYP) =  -1007.49688304     A.U. after   12 cycles
 SCF Done:  E(RB3LYP) =  -1007.50095619     A.U. after   12 cycles
 SCF Done:  E(RB3LYP) =  -1007.50245356     A.U. after    8 cycles
 SCF Done:  E(RB3LYP) =  -1007.48918935     A.U. after   13 cycles
 SCF Done:  E(RB3LYP) =  -1007.50238185     A.U. after   11 cycles
 SCF Done:  E(RB3LYP) =  -1007.50254536     A.U. after    8 cycles
 SCF Done:  E(RB3LYP) =  -1007.50273253     A.U. after   11 cycles
 SCF Done:  E(RB3LYP) =  -1007.50275016     A.U. after   11 cycles
 SCF Done:  E(RB3LYP) =  -1007.50279306     A.U. after   10 cycles
 SCF Done:  E(RB3LYP) =  -1007.50280483     A.U. after    8 cycles
 SCF Done:  E(RB3LYP) =  -1007.50280942     A.U. after    8 cycles
 SCF Done:  E(RB3LYP) =  -1007.50281157     A.U. after    8 cycles
 SCF Done:  E(RB3LYP) =  -1007.50281383     A.U. after    9 cycles
 SCF Done:  E(RB3LYP) =  -1007.50281741     A.U. after    9 cycles
 SCF Done:  E(RB3LYP) =  -1007.50282133     A.U. after    9 cycles
 SCF Done:  E(RB3LYP) =  -1007.50282222     A.U. after    7 cycles
 SCF Done:  E(RB3LYP) =  -1007.50282258     A.U. after    7 cycles
 SCF Done:  E(RB3LYP) =  -1007.50282260     A.U. after    6 cycles
 Optimization completed.
    -- Stationary point found.
 Normal termination of Gaussian 16 at Wed Apr 20 08:28:49 2022.

 ----------------------------------------------------------------------
 #P Geom=AllCheck Guess=TCheck SCRF=Check GenChk RB3LYP/6-311G(d,p) Fre
 q
 ----------------------------------------------------------------------

 Structure from the checkpoint file:  "MImPS.chk"
 -------------------
 Title Card Required
 -------------------
 Charge =  0 Multiplicity = 1

                         Standard orientation:
 ---------------------------------------------------------------------
 Center     Atomic      Atomic             Coordinates (Angstroms)
 Number     Number       Type             X           Y           Z
 ---------------------------------------------------------------------
      1          6           0        2.914257    0.241133   -0.644787
      2          6           0        2.226284    1.392902   -0.438134
      3          6           0        1.262164   -0.196064    0.761282
      4          7           0        2.306445   -0.735395    0.129748
      5          1           0        3.776702    0.032600   -1.252365
      6          1           0        2.374684    2.382610   -0.831718
      7          1           0        0.512109   -0.701668    1.361245
      8          6           0        2.507478   -2.178728    0.012862
      9          1           0        2.335660   -2.644282    0.981631
     10          1           0        1.791187   -2.568170   -0.711805
     11          1           0        3.530009   -2.372480   -0.306020
     12          7           0        1.205527    1.102126    0.454938
     13          6           0        0.052182    1.977136    0.736559
     14          1           0        0.456698    2.967597    0.947615
     15          1           0       -0.430879    1.589043    1.631377
     16          6           0       -0.931854    2.026355   -0.454263
     17          1           0       -1.301871    3.052979   -0.535471
     18          1           0       -0.377708    1.814357   -1.370969
     19          6           0       -2.144576    1.095515   -0.383290
     20          1           0       -2.683773    1.121577   -1.330520
     21          1           0       -2.831228    1.382045    0.414923
     22         16           0       -1.747327   -0.659488   -0.068180
     23          8           0       -2.952835   -1.415176   -0.414179
     24          8           0       -0.545859   -0.936624   -0.919188
     25          8           0       -1.388026   -0.675826    1.390714
 ---------------------------------------------------------------------

 SCF Done:  E(RB3LYP) =  -1007.50282260     A.U. after    1 cycles

 The electronic state is 1-A.
 Alpha  occ. eigenvalues --  -89.00625 -19.05284 -19.05162 -19.04666 -14.42509
 Alpha  occ. eigenvalues --  -14.42134 -10.28236 -10.25414 -10.25248 -10.24558
 Alpha  occ. eigenvalues --  -10.24438 -10.19500 -10.17898  -8.06606  -6.02875
 Alpha  occ. eigenvalues --   -6.02856  -6.02777  -1.09744  -1.07357  -0.98096
 Alpha  occ. eigenvalues --   -0.94081  -0.93325  -0.83722  -0.80970  -0.77388
 Alpha  occ. eigenvalues --   -0.72716  -0.67478  -0.64961  -0.63025  -0.58417
 Alpha  occ. eigenvalues --   -0.54211  -0.53050  -0.51567  -0.50036  -0.49561
 Alpha  occ. eigenvalues --   -0.48790  -0.47670  -0.45764  -0.45494  -0.44382
 Alpha  occ. eigenvalues --   -0.43666  -0.41459  -0.40733  -0.40190  -0.37826
 Alpha  occ. eigenvalues --   -0.36535  -0.33019  -0.30973  -0.29250  -0.28056
 Alpha  occ. eigenvalues --   -0.25819  -0.25659  -0.25134  -0.22120
 Alpha virt. eigenvalues --   -0.03585  -0.02154   0.01908   0.02669   0.04345
 Alpha virt. eigenvalues --    0.06278   0.06842   0.07820   0.08716   0.09201
 Alpha virt. eigenvalues --    0.10025   0.10843   0.11155   0.11833   0.13433

 Mulliken charges:
               1
     1  C    0.033987
     2  C    0.015886
     3  C    0.303025
     4  N   -0.315357
     5  H    0.137869
     6  H    0.135150
     7  H    0.231755
     8  C   -0.158211
     9  H    0.142467
    10  H    0.190310
    11  H    0.123355
    12  N   -0.296336
    13  C   -0.130582
    14  H    0.134648
    15  H    0.181046
    16  C   -0.215297
    17  H    0.121714
    18  H    0.141789
    19  C   -0.395666
    20  H    0.158961
    21  H    0.156234
    22  S    1.066022
    23  O   -0.513679
    24  O   -0.621370
    25  O   -0.627720
 Sum of Mulliken charges =  -0.00000

 Dipole moment (field-independent basis, Debye):
    X=             10.1391    Y=              5.3864    Z=             -0.0303  Tot=             11.4811
 Quadrupole moment (field-independent basis, Debye-Ang):
   XX=            -82.8895   YY=            -75.6030   ZZ=            -87.9667
   XY=            -16.5970   XZ=             -1.9844   YZ=             -2.1276

  Exact polarizability: 127.281  -6.180 121.940  -6.126  -2.387  86.768
 Approx polarizability: 175.928  -5.709 180.262 -15.225  -3.264 147.361

                      1                      2                      3
                      A                      A                      A
 Frequencies --     56.5625                71.0854               100.4700
 Red. masses --      3.7321                 2.8627                 1.2175
 Frc consts  --      0.0070                 0.0085                 0.0072
 IR Inten    --      9.1319                 4.6996                 3.4212

                      4                      5                      6
                      A                      A                      A
 Frequencies --    103.8164               143.4095               163.0205
 Red. masses --      3.6304                 8.7674                 9.5905
 Frc consts  --      0.0231                 0.1062                 0.1502
 IR Inten    --      3.3599                 3.7030                12.8538

                      7                      8                      9
                      A                      A                      A
 Frequencies --    188.7538               243.9958               255.4127
 Red. masses --      2.5595                 4.1299                 5.4190
 Frc consts  --      0.0537                 0.1449                 0.2083
 IR Inten    --      2.5121                 1.5405                 5.4159

                     10                     11                     12
                      A                      A                      A
 Frequencies --    293.6671               324.1319               383.3745
 Red. masses --      2.8017                 3.1943                 4.3801
 Frc consts  --      0.1424                 0.1977                 0.3793
 IR Inten    --      5.4101                 3.0324                 4.4916

                     13                     14                     15
                      A                      A                      A
 Frequencies --    414.0994               442.1484               494.3252
 Red. masses --      2.2730                 3.0668                 9.4521
 Frc consts  --      0.2296                 0.3532                 1.3608
 IR Inten    --      1.1092                 5.3865                15.4408

                     16                     17                     18
                      A                      A                      A
 Frequencies --    508.2048               564.1165               608.2091
 Red. masses --      7.6896                 3.8928                 4.2191
 Frc consts  --      1.1701                 0.7299                 0.9196
 IR Inten    --     44.5025                29.1442                19.4417

                     19                     20                     21
                      A                      A                      A
 Frequencies --    637.0887               663.0318               701.7035
 Red. masses --      3.8329                 3.7741                 4.9093
 Frc consts  --      0.9166                 0.9775                 1.4242
 IR Inten    --     23.0863                54.1685                33.8098

                     22                     23                     24
                      A                      A                      A
 Frequencies --    726.0915               733.8432               828.7741
 Red. masses --      1.4138                 3.6187                 1.6269
 Frc consts  --      0.4392                 1.1482                 0.6584
 IR Inten    --     35.2506                30.3897                 3.7491

                     25                     26                     27
                      A                      A                      A
 Frequencies --    840.8329               866.1286               931.7317
 Red. masses --      1.4069                 2.4538                 1.2617
 Frc consts  --      0.5861                 1.0846                 0.6453
 IR Inten    --      1.1483                 3.5361                84.7773

                     28                     29                     30
                      A                      A                      A
 Frequencies --    970.9365               986.0607              1022.4305
 Red. masses --      2.9911                 4.1279                 1.9795
 Frc consts  --      1.6614                 2.3648                 1.2192
 IR Inten    --     67.3906                48.7211                 8.9825

                     31                     32                     33
                      A                      A                      A
 Frequencies --   1042.0587              1056.5406              1064.4507
 Red. masses --      3.0189                 2.4173                 2.8357
 Frc consts  --      1.9314                 1.5898                 1.8931
 IR Inten    --      6.6483                 4.0339                 2.9066

                     34                     35                     36
                      A                      A                      A
 Frequencies --   1104.8083              1111.8132              1124.9238
 Red. masses --      2.0967                 1.5287                 2.1149
 Frc consts  --      1.5079                 1.1134                 1.5768
 IR Inten    --     55.1885                73.6312                49.0224

                     37                     38                     39
                      A                      A                      A
 Frequencies --   1149.4484              1171.7499              1203.4626
 Red. masses --      1.3244                 1.6370                 1.5677
 Frc consts  --      1.0310                 1.3243                 1.3378
 IR Inten    --      4.0980                35.2998               153.0288

                     40                     41                     42
                      A                      A                      A
 Frequencies --   1226.9121              1254.1322              1266.7170
 Red. masses --      2.1422                 1.9379                 1.4816
 Frc consts  --      1.9000                 1.7959                 1.4007
 IR Inten    --    119.8280               133.8281                75.1970

                     43                     44                     45
                      A                      A                      A
 Frequencies --   1312.9171              1343.1674              1362.7975
 Red. masses --      1.3496                 1.3626                 4.1990
 Frc consts  --      1.3706                 1.4484                 4.5947
 IR Inten    --      8.4919                11.5131                 4.8290

                     46                     47                     48
                      A                      A                      A
 Frequencies --   1377.5019              1390.6846              1411.9888
 Red. masses --      1.3795                 1.9313                 1.7084
 Frc consts  --      1.5423                 2.2006                 2.0068
 IR Inten    --      5.9653                 1.1966                 3.7267

                     49                     50                     51
                      A                      A                      A
 Frequencies --   1451.3490              1461.7008              1466.5087
 Red. masses --      1.2154                 1.6536                 1.4627
 Frc consts  --      1.5084                 2.0815                 1.8534
 IR Inten    --      4.2940                13.8695                 5.5171

                     52                     53                     54
                      A                      A                      A
 Frequencies --   1475.9181              1486.4283              1489.9032
 Red. masses --      1.1306                 1.0566                 1.1213
 Frc consts  --      1.4510                 1.3755                 1.4665
 IR Inten    --      4.1890                 4.5646                19.5962

                     55                     56                     57
                      A                      A                      A
 Frequencies --   1516.6325              1593.3073              1605.6422
 Red. masses --      1.1373                 3.5249                 4.0588
 Frc consts  --      1.5412                 5.2722                 6.1652
 IR Inten    --     21.4163                51.7721                17.7050

                     58                     59                     60
                      A                      A                      A
 Frequencies --   3036.4655              3061.0216              3069.6743
 Red. masses --      1.0652                 1.0320                 1.0618
 Frc consts  --      5.7865                 5.6974                 5.8950
 IR Inten    --     23.1219                17.9398                 6.1086

                     61                     62                     63
                      A                      A                      A
 Frequencies --   3075.5343              3089.2187              3127.1673
 Red. masses --      1.0655                 1.0924                 1.1073
 Frc consts  --      5.9379                 6.1422                 6.3800
 IR Inten    --     21.9570                25.7363                10.5754

                     64                     65                     66
                      A                      A                      A
 Frequencies --   3131.3900              3140.8303              3142.4240
 Red. masses --      1.1123                 1.1045                 1.1056
 Frc consts  --      6.4262                 6.4198                 6.4326
 IR Inten    --    221.8344                 2.9946                 2.2235

                     67                     68                     69
                      A                      A                      A
 Frequencies --   3157.3197              3276.1706              3295.3120
 Red. masses --      1.1064                 1.0919                 1.1098
 Frc consts  --      6.4986                 6.9053                 7.1002
 IR Inten    --      3.7620                 4.9001                 1.1595

 - Thermochemistry -
 -------------------
 Temperature   298.150 Kelvin.  Pressure   1.00000 Atm.
 Atom     1 has atomic number  6 and mass  12.00000

 Molecular mass:   204.05686 amu.
 Principal axes and moments of inertia in atomic units:
                           1         2         3
     Eigenvalues --  1514.385462993.882613873.46532
           X            0.99828  -0.05853  -0.00378
           Y            0.05849   0.99823  -0.01038
           Z            0.00438   0.01014   0.99994
 This molecule is an asymmetric top.
 Rotational symmetry number  1.
 Warning -- assumption of classical behavior for rotation
           may cause significant error
 Rotational temperatures (Kelvin)      0.05719     0.02893     0.02236
 Rotational constants (GHZ):           1.19173     0.60281     0.46592
 Zero-point vibrational energy     528710.2 (Joules/Mol)
                                  126.36478 (Kcal/Mol)
 Warning -- explicit consideration of  18 degrees of freedom as
           vibrations may cause significant error
 Vibrational temperatures:     81.38   102.28   144.55   149.37   206.33
          (Kelvin)            234.55   271.57   351.06   367.48   422.52
                              466.35   551.59   595.80   636.15   711.22
                              731.19   811.64   875.08   916.63   953.95
                             1009.59  1044.68  1055.84  1192.42  1209.77
                             1246.17  1340.55  1396.96  1418.72  1471.05
                             1499.29  1520.13  1531.51  1589.57  1599.65
                             1618.51  1653.80  1685.89  1731.51  1765.25
                             1804.42  1822.52  1888.99  1932.52  1960.76
                             1981.92  2000.88  2031.54  2088.17  2103.06
                             2109.98  2123.52  2138.64  2143.64  2182.10
                             2292.41  2310.16  4368.80  4404.13  4416.58
                             4425.01  4444.70  4499.30  4505.37  4518.95
                             4521.25  4542.68  4713.68  4741.22

 Zero-point correction=                           0.201375 (Hartree/Particle)
 Thermal correction to Energy=                    0.213902
 Thermal correction to Enthalpy=                  0.214846
 Thermal correction to Gibbs Free Energy=         0.162226
 Sum of electronic and zero-point Energies=          -1007.301448
 Sum of electronic and thermal Energies=             -1007.288921
 Sum of electronic and thermal Enthalpies=           -1007.287977
 Sum of electronic and thermal Free Energies=        -1007.340597

                     E (Thermal)             CV                S
                      KCal/Mol        Cal/Mol-Kelvin    Cal/Mol-Kelvin
 Total                  134.225             47.163            110.748
 Electronic               0.000              0.000              0.000
 Translational            0.889              2.981             41.844
 Rotational               0.889              2.981             31.241
 Vibrational            132.448             41.202             37.663
 Vibration     1          0.596              1.975              4.574
 Vibration     2          0.598              1.968              4.123
 Vibration     3          0.604              1.949              3.445
 Vibration     4          0.605              1.946              3.381
 Vibration     5          0.616              1.910              2.758
 Vibration     6          0.623              1.888              2.514
 Vibration     7          0.633              1.855              2.240
 Vibration     8          0.659              1.773              1.774
 Vibration     9          0.666              1.754              1.693
 Vibration    10          0.688              1.686              1.453
 Vibration    11          0.709              1.627              1.289
 Vibration    12          0.753              1.506              1.026
 Vibration    13          0.778              1.440              0.912
 Vibration    14          0.802              1.378              0.820
 Vibration    15          0.850              1.263              0.672
 Vibration    16          0.863              1.232              0.638
 Vibration    17          0.920              1.109              0.516
 Vibration    18          0.967              1.014              0.436

 Optimization completed.
    -- Stationary point found.
 Normal termination of Gaussian 16 at Wed Apr 20 08:31:53 2022.
