 Gaussian 16, Revision A.03,
 Gaussian 16:  ES64L-G16RevA.03 25-Dec-2016

 ---------------
 #p M052X/6-31G*
 ---------------

 -------------------
 Title Card Required
 -------------------
 Symbolic Z-matrix:
 Charge =  0 Multiplicity = 1

                         Standard orientation:
 ---------------------------------------------------------------------
 Center     Atomic      Atomic             Coordinates (Angstroms)
 Number     Number       Type             X           Y           Z
 ---------------------------------------------------------------------
      1          6           0        1.140239    0.719677   -0.000211
      2          6           0        1.193829   -0.670085   -0.000121
      3          6           0       -0.000005   -1.379487    0.000092
      4          6           0       -1.193835   -0.670077    0.000209
      5          6           0       -1.140234    0.719684    0.000117
      6          7           0        0.000005    1.413470   -0.000094
      7          1           0       -0.000006   -2.462801    0.000164
      8          1           0        2.055314    1.303595   -0.000372
      9          1           0        2.149719   -1.178489   -0.000220
     10          1           0       -2.149729   -1.178471    0.000370
     11          1           0       -2.055304    1.303609    0.000196
 ---------------------------------------------------------------------

 SCF Done:  E(RM052X) =  -248.251670950     A.U. after   13 cycles

 The electronic state is 1-A.
 Alpha  occ. eigenvalues --  -14.79475 -10.61184 -10.61182 -10.59997 -10.58825
 Alpha  occ. eigenvalues --  -10.58822  -1.06064  -0.91419  -0.86900  -0.72276
 Alpha  occ. eigenvalues --   -0.72036  -0.61513  -0.55443  -0.54961  -0.50268
 Alpha  occ. eigenvalues --   -0.47667  -0.47451  -0.43034  -0.34585  -0.32115
 Alpha  occ. eigenvalues --   -0.31691
 Alpha virt. eigenvalues --    0.01965   0.03252   0.14721   0.19652   0.21083
 Alpha virt. eigenvalues --    0.21319   0.23608   0.23665   0.29403   0.34822
 Alpha virt. eigenvalues --    0.37543   0.37888   0.50896   0.50988   0.57871

 Mulliken charges:
               1
     1  C    0.007867
     2  C   -0.183736
     3  C   -0.141203
     4  C   -0.183736
     5  C    0.007867
     6  N   -0.418392
     7  H    0.186242
     8  H    0.181893
     9  H    0.180653
    10  H    0.180653
    11  H    0.181893
 Sum of Mulliken charges =  -0.00000

 Dipole moment (field-independent basis, Debye):
    X=             -0.0000    Y=             -2.2608    Z=              0.0001  Tot=              2.2608
 Quadrupole moment (field-independent basis, Debye-Ang):
   XX=            -28.5160   YY=            -35.4642   ZZ=            -37.3257
   XY=             -0.0000   XZ=             -0.0012   YZ=             -0.0001

 Normal termination of Gaussian 16 at Wed Oct 11 11:57:11 2023.
