 Gaussian 16, Revision A.03,
 Gaussian 16:  ES64L-G16RevA.03 25-Dec-2016

 ----------------------------------------
 #p opt freq b3lyp/6-311+g(2d,p) em=gd3bj
 ----------------------------------------

 -------------------
 Title Card Required
 -------------------
 Symbolic Z-matrix:
 Charge =  0 Multiplicity = 1

 SCF Done:  E(RB3LYP) =  -248.375111785     A.U. after   11 cycles
 SCF Done:  E(RB3LYP) =  -248.375115917     A.U. after    8 cycles
 Optimization completed.
    -- Stationary point found.
 Normal termination of Gaussian 16 at Wed Oct 11 11:55:36 2023.

 ----------------------------------------------------------------------
 #P Geom=AllCheck Guess=TCheck SCRF=Check GenChk RB3LYP/6-311+G(2d,p) F
 req
 ----------------------------------------------------------------------

 Structure from the checkpoint file:  "/data0/home/software/g16/scratch/Gau-2486483.chk"
 -------------------
 Title Card Required
 -------------------
 Charge =  0 Multiplicity = 1

                         Standard orientation:
 ---------------------------------------------------------------------
 Center     Atomic      Atomic             Coordinates (Angstroms)
 Number     Number       Type             X           Y           Z
 ---------------------------------------------------------------------
      1          6           0        1.140241    0.719674   -0.000211
      2          6           0        1.193828   -0.670088   -0.000121
      3          6           0       -0.000008   -1.379487    0.000092
      4          6           0       -1.193836   -0.670074    0.000209
      5          6           0       -1.140232    0.719687    0.000117
      6          7           0        0.000009    1.413470   -0.000094
      7          1           0       -0.000012   -2.462801    0.000164
      8          1           0        2.055317    1.303590   -0.000372
      9          1           0        2.149716   -1.178494   -0.000220
     10          1           0       -2.149732   -1.178466    0.000370
     11          1           0       -2.055301    1.303614    0.000196
 ---------------------------------------------------------------------

 SCF Done:  E(RB3LYP) =  -248.375115917     A.U. after    1 cycles

 The electronic state is 1-A.
 Alpha  occ. eigenvalues --  -14.31477 -10.21153 -10.21153 -10.19815 -10.18822
 Alpha  occ. eigenvalues --  -10.18819  -0.95145  -0.81465  -0.77103  -0.63923
 Alpha  occ. eigenvalues --   -0.63751  -0.53873  -0.49174  -0.47847  -0.43854
 Alpha  occ. eigenvalues --   -0.41384  -0.40791  -0.37418  -0.29866  -0.27382
 Alpha  occ. eigenvalues --   -0.26554
 Alpha virt. eigenvalues --   -0.04066  -0.02736   0.00041   0.01957   0.02721
 Alpha virt. eigenvalues --    0.04652   0.05071   0.05398   0.06189   0.08500
 Alpha virt. eigenvalues --    0.08520   0.09426   0.09723   0.11788   0.13588

 Mulliken charges:
               1
     1  C   -0.024757
     2  C   -0.009467
     3  C   -0.097059
     4  C   -0.009468
     5  C   -0.024756
     6  N   -0.298211
     7  H    0.090779
     8  H    0.095824
     9  H    0.090645
    10  H    0.090645
    11  H    0.095824
 Sum of Mulliken charges =  -0.00000

 Dipole moment (field-independent basis, Debye):
    X=             -0.0000    Y=             -2.3117    Z=              0.0001  Tot=              2.3117
 Quadrupole moment (field-independent basis, Debye-Ang):
   XX=            -29.6168   YY=            -36.7886   ZZ=            -38.1593
   XY=             -0.0001   XZ=             -0.0012   YZ=             -0.0001

  Exact polarizability:  75.699  -0.000  71.531  -0.005  -0.002  38.939
 Approx polarizability: 123.373  -0.000 118.543  -0.009  -0.004  58.826

                      1                      2                      3
                      A                      A                      A
 Frequencies --    382.7889               418.4549               620.2563
 Red. masses --      2.5207                 3.7372                 7.1595
 Frc consts  --      0.2176                 0.3856                 1.6228
 IR Inten    --      0.0000                 3.8373                 4.1435

                      4                      5                      6
                      A                      A                      A
 Frequencies --    672.3921               713.6707               762.1873
 Red. masses --      6.3649                 1.2862                 2.5220
 Frc consts  --      1.6954                 0.3860                 0.8632
 IR Inten    --      0.2177                68.1667                 6.5954

                      7                      8                      9
                      A                      A                      A
 Frequencies --    889.8948               955.6794              1000.6551
 Red. masses --      1.2486                 1.3392                 1.4804
 Frc consts  --      0.5826                 0.7206                 0.8734
 IR Inten    --      0.0000                 0.0219                 0.0000

                     10                     11                     12
                      A                      A                      A
 Frequencies --   1008.5876              1013.0994              1053.8904
 Red. masses --      1.3163                 6.9886                 4.1008
 Frc consts  --      0.7889                 4.2262                 2.6835
 IR Inten    --      0.0069                 5.1518                 7.8720

                     13                     14                     15
                      A                      A                      A
 Frequencies --   1077.9877              1096.1258              1172.4457
 Red. masses --      1.7935                 1.8329                 1.1792
 Frc consts  --      1.2279                 1.2975                 0.9550
 IR Inten    --      0.0422                 2.9899                 2.6646

                     16                     17                     18
                      A                      A                      A
 Frequencies --   1242.6867              1278.4272              1390.5806
 Red. masses --      1.2976                 6.0239                 1.2015
 Frc consts  --      1.1806                 5.8007                 1.3689
 IR Inten    --      4.0098                 0.0489                 0.1374

                     19                     20                     21
                      A                      A                      A
 Frequencies --   1476.1285              1517.6611              1618.2987
 Red. masses --      2.0715                 1.9354                 5.3211
 Frc consts  --      2.6594                 2.6265                 8.2105
 IR Inten    --     26.6030                 2.1582                 9.3160

                     22                     23                     24
                      A                      A                      A
 Frequencies --   1624.0016              3146.7253              3149.0466
 Red. masses --      4.8848                 1.0875                 1.0906
 Frc consts  --      7.5904                 6.3444                 6.3723
 IR Inten    --     23.8028                26.6359                 4.0214

                     25                     26                     27
                      A                      A                      A
 Frequencies --   3170.1577              3185.1240              3192.8579
 Red. masses --      1.0888                 1.0929                 1.0983
 Frc consts  --      6.4470                 6.5325                 6.5968
 IR Inten    --      4.5424                24.1446                 6.8873

 - Thermochemistry -
 -------------------
 Temperature   298.150 Kelvin.  Pressure   1.00000 Atm.
 Atom     1 has atomic number  6 and mass  12.00000

 Molecular mass:    79.04220 amu.
 Principal axes and moments of inertia in atomic units:
                           1         2         3
     Eigenvalues --   297.25065 308.16726 605.41790
           X            0.00001   1.00000   0.00014
           Y            1.00000  -0.00001   0.00007
           Z           -0.00007  -0.00014   1.00000
 This molecule is an asymmetric top.
 Rotational symmetry number  1.
 Rotational temperatures (Kelvin)      0.29138     0.28106     0.14306
 Rotational constants (GHZ):           6.07145     5.85637     2.98098
 Zero-point vibrational energy     232253.9 (Joules/Mol)
                                   55.51000 (Kcal/Mol)
 Warning -- explicit consideration of   3 degrees of freedom as
           vibrations may cause significant error
 Vibrational temperatures:    550.75   602.06   892.41   967.42  1026.81
          (Kelvin)           1096.62  1280.36  1375.01  1439.72  1451.13
                             1457.62  1516.31  1550.98  1577.08  1686.89
                             1787.95  1839.37  2000.74  2123.82  2183.58
                             2328.37  2336.58  4527.44  4530.78  4561.15
                             4582.68  4593.81

 Zero-point correction=                           0.088461 (Hartree/Particle)
 Thermal correction to Energy=                    0.092741
 Thermal correction to Enthalpy=                  0.093685
 Thermal correction to Gibbs Free Energy=         0.061065
 Sum of electronic and zero-point Energies=           -248.286655
 Sum of electronic and thermal Energies=              -248.282375
 Sum of electronic and thermal Enthalpies=            -248.281431
 Sum of electronic and thermal Free Energies=         -248.314050

                     E (Thermal)             CV                S
                      KCal/Mol        Cal/Mol-Kelvin    Cal/Mol-Kelvin
 Total                   58.196             16.164             68.653
 Electronic               0.000              0.000              0.000
 Translational            0.889              2.981             39.017
 Rotational               0.889              2.981             25.520
 Vibrational             56.418             10.202              4.117
 Vibration     1          0.752              1.507              1.028
 Vibration     2          0.781              1.430              0.897
 Vibration     3          0.980              0.989              0.416

 Optimization completed.
    -- Stationary point found.
 Normal termination of Gaussian 16 at Wed Oct 11 11:56:19 2023.
