 Gaussian 16, Revision A.03,
 Gaussian 16:  ES64L-G16RevA.03 25-Dec-2016

 ---------------
 #p M052X/6-31G*
 ---------------

 -------------------
 Title Card Required
 -------------------
 Symbolic Z-matrix:
 Charge =  0 Multiplicity = 1

                         Standard orientation:
 ---------------------------------------------------------------------
 Center     Atomic      Atomic             Coordinates (Angstroms)
 Number     Number       Type             X           Y           Z
 ---------------------------------------------------------------------
      1          6           0       -0.712904   -0.836170    0.908865
      2          6           0       -1.661355   -1.777970    0.533339
      3          6           0       -2.836432   -1.370017   -0.057716
      4          6           0       -3.085585   -0.005205   -0.272952
      5          6           0       -2.118577    0.880644    0.138708
      6          1           0       -3.573319   -2.101623   -0.368002
      7          1           0        0.253011   -1.078339    1.339962
      8          1           0       -1.436851   -2.823503    0.687024
      9          1           0       -2.223647    1.949012    0.013237
     10          6           0       -4.350627    0.472482   -0.927179
     11          1           0       -4.378884    1.559756   -0.997475
     12          1           0       -4.437899    0.066355   -1.937320
     13          1           0       -5.227747    0.145787   -0.364337
     14          7           0       -0.971133    0.466862    0.726572
     15          6           0        0.056602    1.490005    1.062270
     16          1           0       -0.483224    2.311367    1.531517
     17          1           0        0.727550    1.037280    1.787324
     18          6           0        0.831565    1.974978   -0.182199
     19          1           0        0.243019    1.750346   -1.073144
     20          1           0        0.913644    3.063547   -0.119777
     21          6           0        2.233180    1.393156   -0.356004
     22          1           0        2.922148    1.748924    0.410620
     23          1           0        2.630146    1.664953   -1.333282
     24         16           0        2.283474   -0.426409   -0.267965
     25          8           0        3.543840   -0.822847   -0.874464
     26          8           0        1.060277   -0.850252   -0.994913
     27          8           0        2.170782   -0.710748    1.187163
 ---------------------------------------------------------------------

 SCF Done:  E(RM052X) =  -1029.21744202     A.U. after   15 cycles

 The electronic state is 1-A.
 Alpha  occ. eigenvalues --  -90.18722 -19.60354 -19.60203 -19.59630 -14.94010
 Alpha  occ. eigenvalues --  -10.68426 -10.67384 -10.65331 -10.65122 -10.65084
 Alpha  occ. eigenvalues --  -10.63458 -10.61723 -10.59869 -10.57278  -8.39379
 Alpha  occ. eigenvalues --   -6.31999  -6.31991  -6.31938  -1.18540  -1.17634
 Alpha  occ. eigenvalues --   -1.03826  -1.03073  -1.00281  -0.95161  -0.91798
 Alpha  occ. eigenvalues --   -0.86472  -0.83899  -0.78439  -0.76355  -0.72558
 Alpha  occ. eigenvalues --   -0.66362  -0.63784  -0.61844  -0.60616  -0.58461
 Alpha  occ. eigenvalues --   -0.57773  -0.55652  -0.54394  -0.53128  -0.52960
 Alpha  occ. eigenvalues --   -0.51499  -0.50617  -0.49140  -0.48263  -0.47783
 Alpha  occ. eigenvalues --   -0.47115  -0.45949  -0.43890  -0.42683  -0.39510
 Alpha  occ. eigenvalues --   -0.37562  -0.35423  -0.34521  -0.31684  -0.31517
 Alpha  occ. eigenvalues --   -0.30042  -0.27619
 Alpha virt. eigenvalues --   -0.05647  -0.01544   0.09528   0.12330   0.12768
 Alpha virt. eigenvalues --    0.13632   0.14663   0.16688   0.17510   0.18427
 Alpha virt. eigenvalues --    0.18529   0.19672   0.20722   0.21019   0.21827

 Mulliken charges:
               1
     1  C    0.132583
     2  C   -0.216396
     3  C   -0.117405
     4  C    0.045039
     5  C    0.057497
     6  H    0.212018
     7  H    0.335881
     8  H    0.234117
     9  H    0.224543
    10  C   -0.562924
    11  H    0.192868
    12  H    0.214981
    13  H    0.205646
    14  N   -0.417401
    15  C   -0.256598
    16  H    0.198875
    17  H    0.270006
    18  C   -0.338066
    19  H    0.206325
    20  H    0.181776
    21  C   -0.541358
    22  H    0.209239
    23  H    0.217404
    24  S    1.236560
    25  O   -0.572576
    26  O   -0.670134
    27  O   -0.682504
 Sum of Mulliken charges =  -0.00000

 Dipole moment (field-independent basis, Debye):
    X=            -12.9568    Y=              4.9186    Z=              2.0455  Tot=             14.0091
 Quadrupole moment (field-independent basis, Debye-Ang):
   XX=            -94.2360   YY=            -78.3364   ZZ=            -92.9981
   XY=             13.6527   XZ=              4.9907   YZ=             -2.0548

 Normal termination of Gaussian 16 at Wed Oct 11 17:06:05 2023.
