 Gaussian 16, Revision A.03,
 Gaussian 16:  ES64L-G16RevA.03 25-Dec-2016

 ----------------------------------------
 #p opt freq b3lyp/6-311+g(2d,p) em=gd3bj
 ----------------------------------------

 -------------------
 Title Card Required
 -------------------
 Symbolic Z-matrix:
 Charge =  0 Multiplicity = 1

 SCF Done:  E(RB3LYP) =  -1029.63363751     A.U. after   16 cycles
 SCF Done:  E(RB3LYP) =  -1029.61544999     A.U. after   13 cycles
 SCF Done:  E(RB3LYP) =  -1029.63198616     A.U. after   12 cycles
 SCF Done:  E(RB3LYP) =  -1029.63365684     A.U. after    9 cycles
 SCF Done:  E(RB3LYP) =  -1029.63366938     A.U. after   11 cycles
 SCF Done:  E(RB3LYP) =  -1029.63369878     A.U. after   11 cycles
 SCF Done:  E(RB3LYP) =  -1029.63369439     A.U. after   11 cycles
 SCF Done:  E(RB3LYP) =  -1029.63374756     A.U. after   10 cycles
 SCF Done:  E(RB3LYP) =  -1029.63374921     A.U. after    9 cycles
 SCF Done:  E(RB3LYP) =  -1029.63374964     A.U. after    8 cycles
 Optimization completed.
    -- Stationary point found.
 Normal termination of Gaussian 16 at Wed Oct 11 16:51:22 2023.

 ----------------------------------------------------------------------
 #P Geom=AllCheck Guess=TCheck SCRF=Check GenChk RB3LYP/6-311+G(2d,p) F
 req
 ----------------------------------------------------------------------

 Structure from the checkpoint file:  "/data0/home/software/g16/scratch/Gau-2511043.chk"
 -------------------
 Title Card Required
 -------------------
 Charge =  0 Multiplicity = 1

                         Standard orientation:
 ---------------------------------------------------------------------
 Center     Atomic      Atomic             Coordinates (Angstroms)
 Number     Number       Type             X           Y           Z
 ---------------------------------------------------------------------
      1          6           0       -0.712904   -0.836170    0.908865
      2          6           0       -1.661355   -1.777970    0.533339
      3          6           0       -2.836432   -1.370017   -0.057716
      4          6           0       -3.085585   -0.005205   -0.272952
      5          6           0       -2.118577    0.880644    0.138708
      6          1           0       -3.573319   -2.101623   -0.368002
      7          1           0        0.253011   -1.078339    1.339962
      8          1           0       -1.436851   -2.823503    0.687024
      9          1           0       -2.223647    1.949012    0.013237
     10          6           0       -4.350627    0.472482   -0.927179
     11          1           0       -4.378884    1.559756   -0.997475
     12          1           0       -4.437899    0.066355   -1.937320
     13          1           0       -5.227747    0.145787   -0.364337
     14          7           0       -0.971133    0.466862    0.726572
     15          6           0        0.056602    1.490005    1.062270
     16          1           0       -0.483224    2.311367    1.531517
     17          1           0        0.727550    1.037280    1.787324
     18          6           0        0.831565    1.974978   -0.182199
     19          1           0        0.243019    1.750346   -1.073144
     20          1           0        0.913644    3.063547   -0.119777
     21          6           0        2.233180    1.393156   -0.356004
     22          1           0        2.922148    1.748924    0.410620
     23          1           0        2.630146    1.664953   -1.333282
     24         16           0        2.283474   -0.426409   -0.267965
     25          8           0        3.543840   -0.822847   -0.874464
     26          8           0        1.060277   -0.850252   -0.994913
     27          8           0        2.170782   -0.710748    1.187163
 ---------------------------------------------------------------------

 SCF Done:  E(RB3LYP) =  -1029.63374964     A.U. after    1 cycles

 The electronic state is 1-A.
 Alpha  occ. eigenvalues --  -88.99453 -19.05723 -19.05593 -19.05111 -14.44762
 Alpha  occ. eigenvalues --  -10.27526 -10.26493 -10.24757 -10.24740 -10.24299
 Alpha  occ. eigenvalues --  -10.23001 -10.21676 -10.19805 -10.17569  -8.05041
 Alpha  occ. eigenvalues --   -6.01340  -6.01315  -6.01285  -1.07498  -1.05842
 Alpha  occ. eigenvalues --   -0.94217  -0.93563  -0.89391  -0.84553  -0.81527
 Alpha  occ. eigenvalues --   -0.76667  -0.74296  -0.69439  -0.67594  -0.63927
 Alpha  occ. eigenvalues --   -0.58250  -0.56396  -0.54160  -0.53064  -0.50970
 Alpha  occ. eigenvalues --   -0.50566  -0.48525  -0.47442  -0.46231  -0.45918
 Alpha  occ. eigenvalues --   -0.44812  -0.43754  -0.42784  -0.41763  -0.41425
 Alpha  occ. eigenvalues --   -0.40791  -0.39706  -0.37945  -0.36720  -0.34223
 Alpha  occ. eigenvalues --   -0.32329  -0.29710  -0.29203  -0.26180  -0.26043
 Alpha  occ. eigenvalues --   -0.25279  -0.22243
 Alpha virt. eigenvalues --   -0.10607  -0.06775  -0.02794  -0.01091  -0.00303
 Alpha virt. eigenvalues --    0.00397   0.01080   0.02064   0.02783   0.02971
 Alpha virt. eigenvalues --    0.04424   0.04914   0.05192   0.05511   0.05915

 Mulliken charges:
               1
     1  C   -0.285889
     2  C    0.148770
     3  C   -0.093841
     4  C    0.459244
     5  C   -0.441796
     6  H    0.111030
     7  H    0.221644
     8  H    0.122743
     9  H    0.122298
    10  C   -0.580233
    11  H    0.125388
    12  H    0.158831
    13  H    0.151469
    14  N    0.388853
    15  C   -0.322462
    16  H    0.122321
    17  H    0.194613
    18  C    0.047310
    19  H    0.125222
    20  H    0.107188
    21  C   -0.515912
    22  H    0.154901
    23  H    0.160547
    24  S    1.262873
    25  O   -0.490390
    26  O   -0.711475
    27  O   -0.743244
 Sum of Mulliken charges =  -0.00000

 Dipole moment (field-independent basis, Debye):
    X=            -12.6285    Y=              4.8612    Z=              1.8564  Tot=             13.6586
 Quadrupole moment (field-independent basis, Debye-Ang):
   XX=            -96.4998   YY=            -80.7631   ZZ=            -94.8552
   XY=             13.4049   XZ=              4.9450   YZ=             -1.8258

  Exact polarizability: 181.590   3.228 142.114   8.930  -1.957 107.064
 Approx polarizability: 246.154   1.154 230.282  20.681  -2.862 177.705

                      1                      2                      3
                      A                      A                      A
 Frequencies --     40.4126                85.8749                91.8428
 Red. masses --      5.0700                 1.3287                 2.4635
 Frc consts  --      0.0049                 0.0058                 0.0122
 IR Inten    --      4.0651                 2.4090                 5.6473

                      4                      5                      6
                      A                      A                      A
 Frequencies --    103.1232               137.1933               147.0024
 Red. masses --      3.8749                 6.9416                 5.3519
 Frc consts  --      0.0243                 0.0770                 0.0681
 IR Inten    --      8.3286                 3.1280                 9.5450

                      7                      8                      9
                      A                      A                      A
 Frequencies --    180.4873               223.1706               252.7774
 Red. masses --      3.4073                 4.1626                 3.9293
 Frc consts  --      0.0654                 0.1221                 0.1479
 IR Inten    --      6.2758                 0.3913                25.3513

                     10                     11                     12
                      A                      A                      A
 Frequencies --    301.0831               323.1486               337.4974
 Red. masses --      2.8144                 2.9521                 3.8860
 Frc consts  --      0.1503                 0.1816                 0.2608
 IR Inten    --      4.1185                 2.5049                 0.7010

                     13                     14                     15
                      A                      A                      A
 Frequencies --    408.2767               423.5542               446.7834
 Red. masses --      3.3454                 2.1670                 2.8912
 Frc consts  --      0.3286                 0.2291                 0.3400
 IR Inten    --      5.6378                 1.1718                 8.2665

                     16                     17                     18
                      A                      A                      A
 Frequencies --    494.1843               506.3360               522.2617
 Red. masses --      8.8530                 6.5507                 5.8397
 Frc consts  --      1.2739                 0.9895                 0.9385
 IR Inten    --     12.1722                28.5236                13.6155

                     19                     20                     21
                      A                      A                      A
 Frequencies --    547.8918               566.8605               597.4664
 Red. masses --      4.9497                 2.9263                 5.6217
 Frc consts  --      0.8754                 0.5540                 1.1823
 IR Inten    --      1.7030                14.2885                22.8335

                     22                     23                     24
                      A                      A                      A
 Frequencies --    692.8718               713.2020               749.7502
 Red. masses --      4.0762                 3.3420                 5.1926
 Frc consts  --      1.1530                 1.0016                 1.7198
 IR Inten    --     55.3880                47.0940                 9.0492

                     25                     26                     27
                      A                      A                      A
 Frequencies --    815.9415               825.6373               865.2929
 Red. masses --      1.5491                 1.5060                 2.2624
 Frc consts  --      0.6077                 0.6049                 0.9980
 IR Inten    --     22.4994                12.7103                 1.7050

                     28                     29                     30
                      A                      A                      A
 Frequencies --    901.9728               934.4176               983.9294
 Red. masses --      1.3819                 3.2777                 2.6408
 Frc consts  --      0.6624                 1.6862                 1.5063
 IR Inten    --      0.8773                 3.3641                53.4985

                     31                     32                     33
                      A                      A                      A
 Frequencies --    992.7120              1003.4223              1014.9704
 Red. masses --      2.5367                 1.6191                 1.8659
 Frc consts  --      1.4729                 0.9605                 1.1325
 IR Inten    --     53.2140                 2.5035                17.6823

                     34                     35                     36
                      A                      A                      A
 Frequencies --   1029.7228              1032.5751              1059.4778
 Red. masses --      1.5248                 1.5929                 2.4621
 Frc consts  --      0.9526                 1.0006                 1.6283
 IR Inten    --      8.8572                 5.5469                 0.9893

                     37                     38                     39
                      A                      A                      A
 Frequencies --   1060.8851              1072.5348              1124.1266
 Red. masses --      3.5627                 1.5343                 5.5059
 Frc consts  --      2.3625                 1.0399                 4.0993
 IR Inten    --     14.2647                 2.5041               201.0890

                     40                     41                     42
                      A                      A                      A
 Frequencies --   1137.0017              1170.8540              1195.2432
 Red. masses --      1.8237                 1.5853                 1.4208
 Frc consts  --      1.3891                 1.2804                 1.1959
 IR Inten    --      2.4359                14.1076                52.4994

                     43                     44                     45
                      A                      A                      A
 Frequencies --   1221.3114              1240.0420              1252.5092
 Red. masses --      1.9626                 1.3443                 2.6700
 Frc consts  --      1.7248                 1.2179                 2.4678
 IR Inten    --    156.0167                18.3398               105.1204

                     46                     47                     48
                      A                      A                      A
 Frequencies --   1258.6357              1276.6763              1333.5125
 Red. masses --      2.7179                 1.8759                 1.2604
 Frc consts  --      2.5368                 1.8014                 1.3206
 IR Inten    --    168.4647                30.7374                10.0450

                     49                     50                     51
                      A                      A                      A
 Frequencies --   1367.5497              1375.0041              1379.4285
 Red. masses --      2.3017                 1.3241                 1.3431
 Frc consts  --      2.5362                 1.4750                 1.5058
 IR Inten    --      7.2518                 8.0282                 1.4558

                     52                     53                     54
                      A                      A                      A
 Frequencies --   1401.2304              1425.9070              1464.8798
 Red. masses --      1.2659                 1.2424                 1.0895
 Frc consts  --      1.4644                 1.4883                 1.3775
 IR Inten    --      0.3644                 1.6177                 4.8720

                     55                     56                     57
                      A                      A                      A
 Frequencies --   1475.6929              1478.8724              1485.4467
 Red. masses --      1.1493                 1.2078                 1.0413
 Frc consts  --      1.4746                 1.5564                 1.3537
 IR Inten    --      5.8399                 6.2831                 8.1841

                     58                     59                     60
                      A                      A                      A
 Frequencies --   1494.7199              1531.7952              1537.7519
 Red. masses --      1.0803                 1.5832                 2.4212
 Frc consts  --      1.4221                 2.1887                 3.3733
 IR Inten    --     11.9151                22.8065                63.8658

                     61                     62                     63
                      A                      A                      A
 Frequencies --   1625.3739              1683.5946              3033.2280
 Red. masses --      4.4879                 4.7643                 1.0654
 Frc consts  --      6.9855                 7.9566                 5.7752
 IR Inten    --      4.6113                14.0149                23.4187

                     64                     65                     66
                      A                      A                      A
 Frequencies --   3036.9249              3066.4239              3075.4747
 Red. masses --      1.0364                 1.0628                 1.0702
 Frc consts  --      5.6315                 5.8878                 5.9639
 IR Inten    --     13.6488                 6.7052                15.0354

                     67                     68                     69
                      A                      A                      A
 Frequencies --   3086.3596              3089.4387              3113.9136
 Red. masses --      1.0860                 1.1010                 1.1016
 Frc consts  --      6.0949                 6.1914                 6.2934
 IR Inten    --     26.5729                 6.0084                 9.4408

                     70                     71                     72
                      A                      A                      A
 Frequencies --   3122.7890              3125.4173              3144.9835
 Red. masses --      1.1062                 1.1029                 1.1042
 Frc consts  --      6.3557                 6.3478                 6.4349
 IR Inten    --     21.4578               173.1910                13.2899

                     73                     74                     75
                      A                      A                      A
 Frequencies --   3176.5846              3208.3672              3219.0486
 Red. masses --      1.0910                 1.0927                 1.0944
 Frc consts  --      6.4861                 6.6273                 6.6817
 IR Inten    --      2.3623                 0.3028                 0.4191

 - Thermochemistry -
 -------------------
 Temperature   298.150 Kelvin.  Pressure   1.00000 Atm.
 Atom     1 has atomic number  6 and mass  12.00000

 Molecular mass:   215.06162 amu.
 Principal axes and moments of inertia in atomic units:
                           1         2         3
     Eigenvalues --  1348.796214617.778625135.15683
           X            0.99985   0.01193   0.01236
           Y           -0.01171   0.99978  -0.01749
           Z           -0.01257   0.01734   0.99977
 This molecule is an asymmetric top.
 Rotational symmetry number  1.
 Warning -- assumption of classical behavior for rotation
           may cause significant error
 Rotational temperatures (Kelvin)      0.06422     0.01876     0.01687
 Rotational constants (GHZ):           1.33804     0.39082     0.35145
 Zero-point vibrational energy     573744.9 (Joules/Mol)
                                  137.12832 (Kcal/Mol)
 Warning -- explicit consideration of  21 degrees of freedom as
           vibrations may cause significant error
 Vibrational temperatures:     58.14   123.55   132.14   148.37   197.39
          (Kelvin)            211.50   259.68   321.09   363.69   433.19
                              464.94   485.58   587.42   609.40   642.82
                              711.02   728.50   751.42   788.29   815.59
                              859.62   996.89  1026.14  1078.72  1173.96
                             1187.91  1244.96  1297.74  1344.42  1415.65
                             1428.29  1443.70  1460.32  1481.54  1485.65
                             1524.35  1526.38  1543.14  1617.37  1635.89
                             1684.60  1719.69  1757.19  1784.14  1802.08
                             1810.90  1836.85  1918.63  1967.60  1978.32
                             1984.69  2016.06  2051.56  2107.64  2123.19
                             2127.77  2137.23  2150.57  2203.91  2212.48
                             2338.55  2422.32  4364.14  4369.46  4411.90
                             4424.92  4440.58  4445.01  4480.23  4493.00
                             4496.78  4524.93  4570.40  4616.12  4631.49

 Zero-point correction=                           0.218528 (Hartree/Particle)
 Thermal correction to Energy=                    0.231762
 Thermal correction to Enthalpy=                  0.232706
 Thermal correction to Gibbs Free Energy=         0.178378
 Sum of electronic and zero-point Energies=          -1029.415222
 Sum of electronic and thermal Energies=             -1029.401987
 Sum of electronic and thermal Enthalpies=           -1029.401043
 Sum of electronic and thermal Free Energies=        -1029.455372

                     E (Thermal)             CV                S
                      KCal/Mol        Cal/Mol-Kelvin    Cal/Mol-Kelvin
 Total                  145.433             50.560            114.344
 Electronic               0.000              0.000              0.000
 Translational            0.889              2.981             42.001
 Rotational               0.889              2.981             31.837
 Vibrational            143.656             44.599             40.507
 Vibration     1          0.594              1.981              5.239
 Vibration     2          0.601              1.959              3.752
 Vibration     3          0.602              1.955              3.620
 Vibration     4          0.605              1.947              3.394
 Vibration     5          0.614              1.916              2.843
 Vibration     6          0.617              1.906              2.711
 Vibration     7          0.629              1.866              2.323
 Vibration     8          0.649              1.806              1.933
 Vibration     9          0.664              1.758              1.711
 Vibration    10          0.693              1.672              1.411
 Vibration    11          0.708              1.629              1.294
 Vibration    12          0.718              1.601              1.224
 Vibration    13          0.773              1.452              0.933
 Vibration    14          0.786              1.419              0.880
 Vibration    15          0.806              1.368              0.806
 Vibration    16          0.850              1.263              0.673
 Vibration    17          0.862              1.236              0.642
 Vibration    18          0.877              1.201              0.605
 Vibration    19          0.903              1.144              0.549
 Vibration    20          0.923              1.103              0.510
 Vibration    21          0.955              1.037              0.454

                           ! Non-Optimized Parameters !
 Normal termination of Gaussian 16 at Wed Oct 11 17:01:10 2023.
