                               Psi4 1.6.1 release

  ==> Input File <==

--------------------------------------------------------------------------
memory 100 GB

molecule dimer {
0 1
C     13.03400000   10.81700000    8.59200000
C     12.84400000   12.16900000    8.89800000
C     12.16500000   12.49700000   10.07100000
C     11.70000000   11.47700000   10.89800000
C     11.93200000   10.14700000   10.52200000
N     12.58700000    9.82800000    9.39000000
H     12.00100000   13.54100000   10.33700000
H     13.55900000   10.49800000    7.68400000
H     13.21700000   12.94300000    8.23400000
H     11.16800000   11.70200000   11.81800000
H     11.58600000    9.30200000   11.13800000
--
0 1
P     12.14100000    6.12600000    9.78900000
O     11.72300000    6.67400000   11.06900000
O     10.89500000    5.64000000    8.92900000
H     11.24200000    5.22100000    8.05700000
O     13.00800000    7.04400000    8.82400000
H     12.80900000    8.06000000    9.01900000
O     13.03400000    4.79500000    9.81400000
H     14.01500000    5.06900000    9.91500000
}

set {
    scf_type DF
    freeze_core True
    basis aug-cc-pVTZ
}

energy('sapt2+(3)dmp2')
--------------------------------------------------------------------------

  //              Dimer HF             //
    Molecular point group: c1
  Charge       = 0
  Multiplicity = 1
  Basis Set: AUG-CC-PVTZ
    Blend: AUG-CC-PVTZ
  Basis Set: (AUG-CC-PVTZ AUX)
    Blend: AUG-CC-PVTZ-JKFIT
  @DF-RHF Final Energy:  -888.99644207946892
    Total Energy =                       -888.9964420794690341
 Dipole X            :         -0.6120992            1.4974079            0.8853087
 Dipole Y            :         -9.2909723           11.0191791            1.7282068
 Dipole Z            :          0.3511129           -1.3981545           -1.0470416
 Magnitude           :                                                    2.2060748
  Basis Set: (AUG-CC-PVTZ AUX)
    Blend: AUG-CC-PVTZ-RI
	 Reference Energy          =    -888.9964420794689204 [Eh]
	 Singles Energy            =      -0.0000000000000000 [Eh]
	 Same-Spin Energy          =      -0.5546480194719814 [Eh]
	 Opposite-Spin Energy      =      -1.5930211192303769 [Eh]
	 Correlation Energy        =      -2.1476691387023585 [Eh]
	 Total Energy              =    -891.1441112181712469 [Eh]
	 SCS Total Energy          =    -891.0929500957026903 [Eh]
  //            Monomer A HF           //
    Molecular point group: c1
  Multiplicity = 1
  Basis Set: AUG-CC-PVTZ
    Blend: AUG-CC-PVTZ
  Basis Set: (AUG-CC-PVTZ AUX)
    Blend: AUG-CC-PVTZ-JKFIT
  @DF-RHF Final Energy:  -246.77593789849541
    Total Energy =                       -246.7759378984953855
  Basis Set: (AUG-CC-PVTZ AUX)
	 Singles Energy            =      -0.0000000000000000 [Eh]
	 Same-Spin Energy          =      -0.2536189844561435 [Eh]
	 Opposite-Spin Energy      =      -0.7475516089888810 [Eh]
	 Correlation Energy        =      -1.0011705934450243 [Eh]
	 Total Energy              =    -247.7771084919404245 [Eh]
	 SCS Total Energy          =    -247.7575394907674422 [Eh]
  //            Monomer B HF           //
    Molecular point group: c1

    Geometry (in Angstrom), charge = 0, multiplicity = 1:

       Center              X                  Y                   Z               Mass
    ------------   -----------------  -----------------  -----------------  -----------------
      Gh(C)           0.769232545159     2.479424983243    -1.108879037846    12.000000000000
      Gh(C)           0.579232545159     3.831424983243    -0.802879037846    12.000000000000
      Gh(C)          -0.099767454841     4.159424983243     0.370120962154    12.000000000000
      Gh(C)          -0.564767454841     3.139424983243     1.197120962154    12.000000000000
      Gh(C)          -0.332767454841     1.809424983243     0.821120962154    12.000000000000
      Gh(N)           0.322232545159     1.490424983243    -0.310879037846    14.003074004430
      Gh(H)          -0.263767454841     5.203424983243     0.636120962154     1.007825032230
      Gh(H)           1.294232545159     2.160424983243    -2.016879037846     1.007825032230
      Gh(H)           0.952232545159     4.605424983243    -1.466879037846     1.007825032230
      Gh(H)          -1.096767454841     3.364424983243     2.117120962154     1.007825032230
      Gh(H)          -0.678767454841     0.964424983243     1.437120962154     1.007825032230
         P           -0.123767454841    -2.211575016757     0.088120962154    30.973761998420
         O           -0.541767454841    -1.663575016757     1.368120962154    15.994914619570
         O           -1.369767454841    -2.697575016757    -0.771879037846    15.994914619570
         H           -1.022767454841    -3.116575016757    -1.643879037846     1.007825032230
         O            0.743232545159    -1.293575016757    -0.876879037846    15.994914619570
         H            0.544232545159    -0.277575016757    -0.681879037846     1.007825032230
         O            0.769232545159    -3.542575016757     0.113120962154    15.994914619570
         H            1.750232545159    -3.268575016757     0.214120962154     1.007825032230

  Charge       = 0
  Multiplicity = 1
  Basis Set: AUG-CC-PVTZ
    Blend: AUG-CC-PVTZ
  Basis Set: (AUG-CC-PVTZ AUX)
    Blend: AUG-CC-PVTZ-JKFIT

    Orbital Energies [Eh]
    ---------------------

    Doubly Occupied:

       1A    -80.109363     2A    -20.632562     3A    -20.618145
       4A    -20.613458     5A    -20.515260     6A     -7.627668
       7A     -5.525952     8A     -5.525820     9A     -5.524647
      10A     -1.465042    11A     -1.388114    12A     -1.379686
      13A     -1.306911    14A     -0.845542    15A     -0.764693
      16A     -0.744107    17A     -0.674363    18A     -0.664198
      19A     -0.612722    20A     -0.598574    21A     -0.578486
      22A     -0.554449    23A     -0.545650    24A     -0.478983
      25A     -0.474176

  @DF-RHF Final Energy:  -642.19826599264434

   => Energetics <=

    Nuclear Repulsion Energy =            280.2776092826302374
    One-Electron Energy =               -1445.4146070556880659
    Two-Electron Energy =                 522.9387317804134909
    Total Energy =                       -642.1982659926443375
 Dipole X            :          8.2569260           -7.1382000            1.1187261
 Dipole Y            :        214.5286845         -214.3228177            0.2058668
 Dipole Z            :          2.5748412           -4.0250257           -1.4501845
 Magnitude           :                                                    1.8430855
  Basis Set: (AUG-CC-PVTZ AUX)
    Blend: AUG-CC-PVTZ-RI
	 Reference Energy          =    -642.1982659926443375 [Eh]
	 Singles Energy            =      -0.0000000000000000 [Eh]
	 Same-Spin Energy          =      -0.2974248323643216 [Eh]
	 Opposite-Spin Energy      =      -0.8432810031231431 [Eh]
	 Correlation Energy        =      -1.1407058354874646 [Eh]
	 Total Energy              =    -643.3389718281317755 [Eh]

	 ================> DF-SCS-MP2 Energies <==================
	-----------------------------------------------------------
	 SCS Same-Spin Scale       =       0.3333333333333333 [-]
	 SCS Opposite-Spin Scale   =       1.2000000000000000 [-]
	 SCS Same-Spin Energy      =      -0.0991416107881072 [Eh]
	 SCS Opposite-Spin Energy  =      -1.0119372037477716 [Eh]
	 SCS Correlation Energy    =      -1.1110788145358788 [Eh]
	 SCS Total Energy          =    -643.3093448071801959 [Eh]
	-----------------------------------------------------------

    SAPT Results
  --------------------------------------------------------------------------------------------------------
    Electrostatics                -31.10058710 [mEh]     -19.51591304 [kcal/mol]     -81.65458018 [kJ/mol]
      Elst10,r                    -32.23287069 [mEh]     -20.22643172 [kcal/mol]     -84.62739033 [kJ/mol]
      Elst12,r                      0.74683937 [mEh]       0.46864878 [kcal/mol]       1.96082649 [kJ/mol]
      Elst13,r                      0.38544422 [mEh]       0.24186990 [kcal/mol]       1.01198366 [kJ/mol]

    Exchange                       29.00662487 [mEh]      18.20193191 [kcal/mol]      76.15688311 [kJ/mol]
      Exch10                       25.68340555 [mEh]      16.11658030 [kcal/mol]      67.43177198 [kJ/mol]
      Exch10(S^2)                  25.30874554 [mEh]      15.88147760 [kcal/mol]      66.44810226 [kJ/mol]
      Exch11(S^2)                   0.43709106 [mEh]       0.27427878 [kcal/mol]       1.14758241 [kJ/mol]
      Exch12(S^2)                   2.88612826 [mEh]       1.81107283 [kcal/mol]       7.57752871 [kJ/mol]

    Induction                     -16.32141436 [mEh]     -10.24184214 [kcal/mol]     -42.85186751 [kJ/mol]
      Ind20,r                     -16.84264171 [mEh]     -10.56891723 [kcal/mol]     -44.22034971 [kJ/mol]
      Ind22                        -1.55868221 [mEh]      -0.97808785 [kcal/mol]      -4.09231957 [kJ/mol]
      Exch-Ind20,r                  7.64652316 [mEh]       4.79826572 [kcal/mol]      20.07594379 [kJ/mol]
      Exch-Ind22                    0.70763837 [mEh]       0.44404978 [kcal/mol]       1.85790429 [kJ/mol]
      delta HF,r (2)               -6.49260464 [mEh]      -4.07417092 [kcal/mol]     -17.04633114 [kJ/mol]
      delta MP2,r (2)               0.21835266 [mEh]       0.13701836 [kcal/mol]       0.57328483 [kJ/mol]

    Dispersion                    -10.17623546 [mEh]      -6.38568416 [kcal/mol]     -26.71770252 [kJ/mol]
      Disp20                      -11.04146591 [mEh]      -6.92862446 [kcal/mol]     -28.98936475 [kJ/mol]
      Disp30                        0.41002055 [mEh]       0.25729178 [kcal/mol]       1.07650880 [kJ/mol]
      Disp21                        1.19120089 [mEh]       0.74748984 [kcal/mol]       3.12749750 [kJ/mol]
      Disp22 (SDQ)                 -0.21417748 [mEh]      -0.13439840 [kcal/mol]      -0.56232290 [kJ/mol]
      Disp22 (T)                   -2.07674878 [mEh]      -1.30317953 [kcal/mol]      -5.45250316 [kJ/mol]
      Est. Disp22 (T)              -2.33320213 [mEh]      -1.46410644 [kcal/mol]      -6.12582135 [kJ/mol]
      Exch-Disp20                   1.81138862 [mEh]       1.13666352 [kcal/mol]       4.75580018 [kJ/mol]

  Total HF                        -22.23818833 [mEh]     -13.95467386 [kcal/mol]     -58.38635541 [kJ/mol]
  Total SAPT0                     -31.46826562 [mEh]     -19.74663480 [kcal/mol]     -82.61991999 [kJ/mol]
  Total SAPT2                     -28.24925076 [mEh]     -17.72667248 [kcal/mol]     -74.16839765 [kJ/mol]
  Total SAPT2+                    -29.60542948 [mEh]     -18.57768747 [kcal/mol]     -77.72904439 [kJ/mol]
  Total SAPT2+(3)                 -28.80996471 [mEh]     -18.07852580 [kcal/mol]     -75.64055193 [kJ/mol]
  Total SAPT2+dMP2                -29.38707682 [mEh]     -18.44066911 [kcal/mol]     -77.15575957 [kJ/mol]
  Total SAPT2+(3)dMP2             -28.59161205 [mEh]     -17.94150743 [kcal/mol]     -75.06726710 [kJ/mol]

  Special recipe for scaled SAPT0 (see Manual):
    Electrostatics sSAPT0         -32.23287069 [mEh]     -20.22643172 [kcal/mol]     -84.62739033 [kJ/mol]
    Exchange sSAPT0                25.68340555 [mEh]      16.11658030 [kcal/mol]      67.43177198 [kJ/mol]
    Induction sSAPT0              -15.34408355 [mEh]      -9.62855779 [kcal/mol]     -40.28588580 [kJ/mol]
    Dispersion sSAPT0              -9.14843543 [mEh]      -5.74072990 [kcal/mol]     -24.01921392 [kJ/mol]
  Total sSAPT0                    -31.04198412 [mEh]     -19.47913912 [kcal/mol]     -81.50071807 [kJ/mol]
  --------------------------------------------------------------------------------------------------------

*** Psi4 exiting successfully. Buy a developer a beer!
