 Gaussian 16, Revision A.03,
 Gaussian 16:  ES64L-G16RevA.03 25-Dec-2016

 ----------------------------------------
 #p M052X/6-31G* scrf=(smd,solvent=water)
 ----------------------------------------

 -------------------
 Title Card Required
 -------------------
 Symbolic Z-matrix:
 Charge =  0 Multiplicity = 1

                         Standard orientation:
 ---------------------------------------------------------------------
 Center     Atomic      Atomic             Coordinates (Angstroms)
 Number     Number       Type             X           Y           Z
 ---------------------------------------------------------------------
      1          6           0       -2.468455    0.043213    1.175681
      2          6           0       -1.574068    1.061409    1.122269
      3          6           0       -1.729195    0.189727   -0.897154
      4          7           0       -2.555355   -0.484491   -0.099955
      5          1           0       -3.047546   -0.349970    1.992327
      6          1           0       -1.222211    1.730217    1.886922
      7          1           0       -1.578403    0.001807   -1.944967
      8          6           0       -3.383458   -1.620344   -0.497052
      9          1           0       -3.278835   -1.768163   -1.568487
     10          1           0       -3.052546   -2.511847    0.032399
     11          1           0       -4.422976   -1.411298   -0.253016
     12          7           0       -1.129739    1.141029   -0.183913
     13          6           0       -0.130145    2.087219   -0.697881
     14          1           0       -0.548199    3.085829   -0.576935
     15          1           0       -0.027149    1.888022   -1.763114
     16          6           0        1.216377    2.016968    0.014367
     17          1           0        1.716346    2.964570   -0.200231
     18          1           0        1.069101    1.989318    1.095082
     19          6           0        2.184742    0.921596   -0.415468
     20          1           0        3.160579    1.113193    0.030710
     21          1           0        2.305583    0.889148   -1.499116
     22         16           0        1.796209   -0.773810    0.081099
     23          8           0        3.070071   -1.517316   -0.080466
     24          8           0        1.347189   -0.713616    1.492208
     25          8           0        0.743714   -1.273360   -0.833073
 ---------------------------------------------------------------------

 SCF Done:  E(RM052X) =  -1007.22093375     A.U. after   13 cycles

 The electronic state is 1-A.
 Alpha  occ. eigenvalues --  -90.22741 -19.64263 -19.64165 -19.63972 -14.89665
 Alpha  occ. eigenvalues --  -14.89353 -10.67716 -10.62785 -10.62669 -10.62418
 Alpha  occ. eigenvalues --  -10.61371 -10.58868 -10.58257  -8.43398  -6.36033
 Alpha  occ. eigenvalues --   -6.36026  -6.35912  -1.22053  -1.19915  -1.07263
 Alpha  occ. eigenvalues --   -1.07205  -1.06951  -0.92503  -0.89809  -0.85915
 Alpha  occ. eigenvalues --   -0.81153  -0.75006  -0.71727  -0.69802  -0.64827
 Alpha  occ. eigenvalues --   -0.63511  -0.59182  -0.56839  -0.55554  -0.55234
 Alpha  occ. eigenvalues --   -0.54313  -0.53908  -0.53284  -0.52538  -0.51725
 Alpha  occ. eigenvalues --   -0.49330  -0.48165  -0.47674  -0.45755  -0.44058
 Alpha  occ. eigenvalues --   -0.42036  -0.40432  -0.40291  -0.36892  -0.35875
 Alpha  occ. eigenvalues --   -0.35001  -0.34125  -0.32845  -0.31012
 Alpha virt. eigenvalues --    0.04238   0.06719   0.13991   0.15445   0.16539
 Alpha virt. eigenvalues --    0.17441   0.17530   0.19271   0.19473   0.19909
 Alpha virt. eigenvalues --    0.20385   0.21599   0.21966   0.22148   0.23808

 Mulliken charges:
               1
     1  C   -0.012266
     2  C   -0.017579
     3  C    0.325336
     4  N   -0.444781
     5  H    0.276322
     6  H    0.280159
     7  H    0.309992
     8  C   -0.372716
     9  H    0.240087
    10  H    0.240627
    11  H    0.239038
    12  N   -0.435076
    13  C   -0.191772
    14  H    0.242921
    15  H    0.240011
    16  C   -0.354503
    17  H    0.222895
    18  H    0.214301
    19  C   -0.550334
    20  H    0.238715
    21  H    0.235551
    22  S    1.164345
    23  O   -0.702891
    24  O   -0.699114
    25  O   -0.689268
 Sum of Mulliken charges =  -0.00000

 Dipole moment (field-independent basis, Debye):
    X=            -15.7135    Y=             10.2112    Z=             -3.2414  Tot=             19.0182
 Quadrupole moment (field-independent basis, Debye-Ang):
   XX=            -77.4194   YY=            -78.2982   ZZ=            -78.8881
   XY=             26.3754   XZ=             -3.2897   YZ=              0.1277

 Normal termination of Gaussian 16 at Wed Oct 11 16:38:44 2023.
