 Gaussian 16, Revision A.03,
 Gaussian 16:  ES64L-G16RevA.03 25-Dec-2016

 -----------------------------------------------------------------
 #p opt freq b3lyp/6-311+g(2d,p) scrf=(smd,solvent=water) em=gd3bj
 -----------------------------------------------------------------

 -------------------
 Title Card Required
 -------------------
 Symbolic Z-matrix:
 Charge =  0 Multiplicity = 1

 SCF Done:  E(RB3LYP) =  -1007.61936370     A.U. after   13 cycles
 SCF Done:  E(RB3LYP) =  -1007.61939029     A.U. after    9 cycles
 SCF Done:  E(RB3LYP) =  -1007.61939196     A.U. after    8 cycles
 SCF Done:  E(RB3LYP) =  -1007.61939451     A.U. after    8 cycles
 SCF Done:  E(RB3LYP) =  -1007.61939612     A.U. after    8 cycles
 SCF Done:  E(RB3LYP) =  -1007.61939586     A.U. after    7 cycles
 SCF Done:  E(RB3LYP) =  -1007.61939624     A.U. after    6 cycles
 SCF Done:  E(RB3LYP) =  -1007.61939626     A.U. after    6 cycles
 SCF Done:  E(RB3LYP) =  -1007.61939634     A.U. after    6 cycles
 SCF Done:  E(RB3LYP) =  -1007.61939654     A.U. after    6 cycles
 SCF Done:  E(RB3LYP) =  -1007.61939661     A.U. after    6 cycles
 SCF Done:  E(RB3LYP) =  -1007.61939665     A.U. after    6 cycles
 Optimization completed.
    -- Stationary point found.
 Normal termination of Gaussian 16 at Wed Oct 11 16:20:29 2023.

 ----------------------------------------------------------------------
 #P Geom=AllCheck Guess=TCheck SCRF=Check GenChk RB3LYP/6-311+G(2d,p) F
 req
 ----------------------------------------------------------------------

 Structure from the checkpoint file:  "/data0/home/software/g16/scratch/Gau-2506455.chk"
 -------------------
 Title Card Required
 -------------------
 Charge =  0 Multiplicity = 1

                         Standard orientation:
 ---------------------------------------------------------------------
 Center     Atomic      Atomic             Coordinates (Angstroms)
 Number     Number       Type             X           Y           Z
 ---------------------------------------------------------------------
      1          6           0       -2.468455    0.043213    1.175681
      2          6           0       -1.574068    1.061409    1.122269
      3          6           0       -1.729195    0.189727   -0.897154
      4          7           0       -2.555355   -0.484491   -0.099955
      5          1           0       -3.047546   -0.349970    1.992327
      6          1           0       -1.222211    1.730217    1.886922
      7          1           0       -1.578403    0.001807   -1.944967
      8          6           0       -3.383458   -1.620344   -0.497052
      9          1           0       -3.278835   -1.768163   -1.568487
     10          1           0       -3.052546   -2.511847    0.032399
     11          1           0       -4.422976   -1.411298   -0.253016
     12          7           0       -1.129739    1.141029   -0.183913
     13          6           0       -0.130145    2.087219   -0.697881
     14          1           0       -0.548199    3.085829   -0.576935
     15          1           0       -0.027149    1.888022   -1.763114
     16          6           0        1.216377    2.016968    0.014367
     17          1           0        1.716346    2.964570   -0.200231
     18          1           0        1.069101    1.989318    1.095082
     19          6           0        2.184742    0.921596   -0.415468
     20          1           0        3.160579    1.113193    0.030710
     21          1           0        2.305583    0.889148   -1.499116
     22         16           0        1.796209   -0.773810    0.081099
     23          8           0        3.070071   -1.517316   -0.080466
     24          8           0        1.347189   -0.713616    1.492208
     25          8           0        0.743714   -1.273360   -0.833073
 ---------------------------------------------------------------------

 SCF Done:  E(RB3LYP) =  -1007.61939665     A.U. after    1 cycles

 The electronic state is 1-A.
 Alpha  occ. eigenvalues --  -89.03278 -19.09413 -19.09251 -19.09237 -14.40512
 Alpha  occ. eigenvalues --  -14.40162 -10.26760 -10.22186 -10.22101 -10.22057
 Alpha  occ. eigenvalues --  -10.21197 -10.18877 -10.18018  -8.08894  -6.05203
 Alpha  occ. eigenvalues --   -6.05200  -6.05079  -1.10954  -1.07685  -0.97486
 Alpha  occ. eigenvalues --   -0.97328  -0.95916  -0.81913  -0.79332  -0.75861
 Alpha  occ. eigenvalues --   -0.71520  -0.66020  -0.63108  -0.61227  -0.56864
 Alpha  occ. eigenvalues --   -0.55411  -0.51082  -0.49388  -0.48108  -0.47937
 Alpha  occ. eigenvalues --   -0.47146  -0.46825  -0.46242  -0.45534  -0.44881
 Alpha  occ. eigenvalues --   -0.42389  -0.41547  -0.40951  -0.39142  -0.37817
 Alpha  occ. eigenvalues --   -0.35914  -0.34359  -0.34246  -0.31140  -0.29982
 Alpha  occ. eigenvalues --   -0.29355  -0.29086  -0.27382  -0.25615
 Alpha virt. eigenvalues --   -0.02040   0.00117   0.00811   0.01829   0.02648
 Alpha virt. eigenvalues --    0.02946   0.03877   0.04464   0.04642   0.05138
 Alpha virt. eigenvalues --    0.05832   0.06040   0.06793   0.07218   0.07663

 Mulliken charges:
               1
     1  C   -0.189348
     2  C   -0.041442
     3  C   -0.091356
     4  N    0.136535
     5  H    0.174470
     6  H    0.182821
     7  H    0.220538
     8  C   -0.278615
     9  H    0.176999
    10  H    0.188053
    11  H    0.183593
    12  N    0.053763
    13  C   -0.265754
    14  H    0.171051
    15  H    0.177687
    16  C   -0.075105
    17  H    0.151414
    18  H    0.150037
    19  C   -0.443728
    20  H    0.189855
    21  H    0.185019
    22  S    1.421304
    23  O   -0.763000
    24  O   -0.829606
    25  O   -0.785187
 Sum of Mulliken charges =  -0.00000

 Dipole moment (field-independent basis, Debye):
    X=            -15.7487    Y=             10.5531    Z=             -3.3001  Tot=             19.2427
 Quadrupole moment (field-independent basis, Debye-Ang):
   XX=            -80.3098   YY=            -80.8642   ZZ=            -81.4939
   XY=             26.9171   XZ=             -3.3212   YZ=             -0.0098

  Exact polarizability: 170.243  21.689 174.008  -6.435   4.002 170.809
 Approx polarizability: 173.519  22.231 177.137  -6.714   5.709 184.547

                      1                      2                      3
                      A                      A                      A
 Frequencies --     32.3349                50.7543                62.1591
 Red. masses --      7.1691                 3.7437                 4.5163
 Frc consts  --      0.0044                 0.0057                 0.0103
 IR Inten    --     13.4824                14.9157                 0.6950

                      4                      5                      6
                      A                      A                      A
 Frequencies --     80.5883                89.9778               140.7837
 Red. masses --      1.4612                 2.5262                 6.2881
 Frc consts  --      0.0056                 0.0120                 0.0734
 IR Inten    --      1.4496                10.2093                10.4942

                      7                      8                      9
                      A                      A                      A
 Frequencies --    195.9121               233.2987               247.3448
 Red. masses --      4.1808                 2.9535                 4.2216
 Frc consts  --      0.0945                 0.0947                 0.1522
 IR Inten    --      2.5591                 0.4003                 4.2525

                     10                     11                     12
                      A                      A                      A
 Frequencies --    289.0097               329.8445               359.2550
 Red. masses --      2.6296                 2.6973                 4.7622
 Frc consts  --      0.1294                 0.1729                 0.3621
 IR Inten    --      1.7326                 5.7435                10.0073

                     13                     14                     15
                      A                      A                      A
 Frequencies --    416.9176               459.2307               484.4753
 Red. masses --      2.2009                 2.9465                 8.6707
 Frc consts  --      0.2254                 0.3661                 1.1991
 IR Inten    --      2.1216                 8.1333                50.7723

                     16                     17                     18
                      A                      A                      A
 Frequencies --    486.9233               547.1867               602.2994
 Red. masses --     10.4576                 3.8978                 3.6965
 Frc consts  --      1.4608                 0.6876                 0.7901
 IR Inten    --     47.6110                58.3697                23.6977

                     19                     20                     21
                      A                      A                      A
 Frequencies --    627.8190               650.2779               689.8332
 Red. masses --      3.0180                 3.1509                 5.4817
 Frc consts  --      0.7009                 0.7850                 1.5369
 IR Inten    --     32.2923                17.8100                64.8600

                     22                     23                     24
                      A                      A                      A
 Frequencies --    720.3187               740.2890               853.4143
 Red. masses --      4.5961                 1.2384                 1.5942
 Frc consts  --      1.4050                 0.3999                 0.6841
 IR Inten    --     55.8098                72.4422                13.4973

                     25                     26                     27
                      A                      A                      A
 Frequencies --    862.9189               864.9966               875.5280
 Red. masses --      1.3952                 1.4713                 2.2210
 Frc consts  --      0.6121                 0.6486                 1.0031
 IR Inten    --     16.5644                16.1167                 8.6682

                     28                     29                     30
                      A                      A                      A
 Frequencies --    951.0262               992.7378              1041.7385
 Red. masses --      2.2489                10.8621                 2.4813
 Frc consts  --      1.1984                 6.3071                 1.5865
 IR Inten    --     31.5593               216.7746                25.3185

                     31                     32                     33
                      A                      A                      A
 Frequencies --   1048.2919              1064.3743              1079.9634
 Red. masses --      3.1823                 2.3089                 2.2432
 Frc consts  --      2.0604                 1.5412                 1.5415
 IR Inten    --      3.7832                29.9702                34.5648

                     34                     35                     36
                      A                      A                      A
 Frequencies --   1103.3099              1106.2917              1113.5758
 Red. masses --     16.1323                 1.3215                 8.1052
 Frc consts  --     11.5702                 0.9529                 5.9218
 IR Inten    --    690.4705                20.6277               621.9467

                     37                     38                     39
                      A                      A                      A
 Frequencies --   1122.5345              1160.8352              1177.8696
 Red. masses --      1.4609                 1.3245                 1.9658
 Frc consts  --      1.0846                 1.0516                 1.6069
 IR Inten    --      2.3882                 0.8207               136.5369

                     40                     41                     42
                      A                      A                      A
 Frequencies --   1190.6546              1255.2385              1273.7147
 Red. masses --      1.3318                 1.2057                 1.3273
 Frc consts  --      1.1124                 1.1193                 1.2687
 IR Inten    --     47.5658                11.0380                 4.0963

                     43                     44                     45
                      A                      A                      A
 Frequencies --   1309.7368              1346.7638              1359.5649
 Red. masses --      1.3281                 1.6491                 2.6752
 Frc consts  --      1.3423                 1.7623                 2.9134
 IR Inten    --      2.4665                 6.4503                 4.0298

                     46                     47                     48
                      A                      A                      A
 Frequencies --   1392.7109              1398.7285              1417.0032
 Red. masses --      1.8441                 1.3801                 1.9430
 Frc consts  --      2.1074                 1.5908                 2.2986
 IR Inten    --      1.6194                20.0691                 8.1770

                     49                     50                     51
                      A                      A                      A
 Frequencies --   1441.2226              1447.6987              1461.8121
 Red. masses --      1.3349                 1.6986                 1.2729
 Frc consts  --      1.6337                 2.0975                 1.6027
 IR Inten    --     11.6553                 5.4007                25.1034

                     52                     53                     54
                      A                      A                      A
 Frequencies --   1467.7785              1471.4571              1491.0775
 Red. masses --      1.1300                 1.0423                 1.1212
 Frc consts  --      1.4343                 1.3296                 1.4687
 IR Inten    --     13.2090                21.6272                24.9180

                     55                     56                     57
                      A                      A                      A
 Frequencies --   1498.1008              1598.3251              1607.9293
 Red. masses --      1.1696                 3.9322                 3.8859
 Frc consts  --      1.5465                 5.9185                 5.9194
 IR Inten    --     18.5104                86.8988                33.5150

                     58                     59                     60
                      A                      A                      A
 Frequencies --   3054.5098              3069.2253              3075.8417
 Red. masses --      1.0637                 1.0607                 1.0319
 Frc consts  --      5.8472                 5.8869                 5.7518
 IR Inten    --     18.0210                 5.9753                22.8741

                     61                     62                     63
                      A                      A                      A
 Frequencies --   3084.6238              3095.8697              3123.1836
 Red. masses --      1.0673                 1.0923                 1.1060
 Frc consts  --      5.9831                 6.1679                 6.3565
 IR Inten    --     14.1077                26.2724                 7.2332

                     64                     65                     66
                      A                      A                      A
 Frequencies --   3139.0626              3150.1759              3172.5453
 Red. masses --      1.1056                 1.1072                 1.1064
 Frc consts  --      6.4185                 6.4733                 6.5610
 IR Inten    --     10.1512                 5.5871                 2.7141

                     67                     68                     69
                      A                      A                      A
 Frequencies --   3283.4037              3296.8848              3301.5301
 Red. masses --      1.0943                 1.1031                 1.1105
 Frc consts  --      6.9511                 7.0644                 7.1315
 IR Inten    --     21.3461                54.8897                 4.2813

 - Thermochemistry -
 -------------------
 Temperature   298.150 Kelvin.  Pressure   1.00000 Atm.
 Atom     1 has atomic number  6 and mass  12.00000

 Molecular mass:   204.05686 amu.
 Principal axes and moments of inertia in atomic units:
                           1         2         3
     Eigenvalues --  1535.324683384.096774056.83484
           X            0.99842   0.05625  -0.00153
           Y           -0.05624   0.99841   0.00336
           Z            0.00172  -0.00326   0.99999
 This molecule is an asymmetric top.
 Rotational symmetry number  1.
 Warning -- assumption of classical behavior for rotation
           may cause significant error
 Rotational temperatures (Kelvin)      0.05641     0.02559     0.02135
 Rotational constants (GHZ):           1.17548     0.53330     0.44486
 Zero-point vibrational energy     527748.2 (Joules/Mol)
                                  126.13485 (Kcal/Mol)
 Warning -- explicit consideration of  18 degrees of freedom as
           vibrations may cause significant error
 Vibrational temperatures:     46.52    73.02    89.43   115.95   129.46
          (Kelvin)            202.56   281.87   335.66   355.87   415.82
                              474.57   516.89   599.85   660.73   697.05
                              700.57   787.28   866.57   903.29   935.60
                              992.52  1036.38  1065.11  1227.87  1241.55
                             1244.54  1259.69  1368.31  1428.33  1498.83
                             1508.26  1531.40  1553.83  1587.42  1591.71
                             1602.19  1615.08  1670.18  1694.69  1713.09
                             1806.01  1832.59  1884.42  1937.69  1956.11
                             2003.80  2012.46  2038.75  2073.60  2082.92
                             2103.22  2111.81  2117.10  2145.33  2155.43
                             2299.63  2313.45  4394.76  4415.93  4425.45
                             4438.09  4454.27  4493.56  4516.41  4532.40
                             4564.59  4724.09  4743.48  4750.17

 Zero-point correction=                           0.201009 (Hartree/Particle)
 Thermal correction to Energy=                    0.213968
 Thermal correction to Enthalpy=                  0.214912
 Thermal correction to Gibbs Free Energy=         0.159983
 Sum of electronic and zero-point Energies=          -1007.418388
 Sum of electronic and thermal Energies=             -1007.405429
 Sum of electronic and thermal Enthalpies=           -1007.404485
 Sum of electronic and thermal Free Energies=        -1007.459414

                     E (Thermal)             CV                S
                      KCal/Mol        Cal/Mol-Kelvin    Cal/Mol-Kelvin
 Total                  134.267             47.567            115.608
 Electronic               0.000              0.000              0.000
 Translational            0.889              2.981             41.844
 Rotational               0.889              2.981             31.422
 Vibrational            132.489             41.606             42.342
 Vibration     1          0.594              1.983              5.681
 Vibration     2          0.595              1.977              4.788
 Vibration     3          0.597              1.972              4.387
 Vibration     4          0.600              1.962              3.876
 Vibration     5          0.602              1.956              3.661
 Vibration     6          0.615              1.913              2.793
 Vibration     7          0.636              1.846              2.171
 Vibration     8          0.654              1.790              1.853
 Vibration     9          0.661              1.767              1.749
 Vibration    10          0.686              1.694              1.480
 Vibration    11          0.713              1.616              1.261
 Vibration    12          0.734              1.556              1.125
 Vibration    13          0.780              1.433              0.903
 Vibration    14          0.817              1.340              0.768
 Vibration    15          0.841              1.284              0.698
 Vibration    16          0.843              1.279              0.692
 Vibration    17          0.902              1.146              0.550
 Vibration    18          0.961              1.027              0.446

 Optimization completed.
    -- Stationary point found.
 Normal termination of Gaussian 16 at Wed Oct 11 16:28:19 2023.
