 Gaussian 16, Revision A.03,
 Gaussian 16:  ES64L-G16RevA.03 25-Dec-2016

 -----------------------------------
 #p opt freq B3LYP/6-311G** em=GD3BJ
 -----------------------------------

 -------------------
 Title Card Required
 -------------------
 Symbolic Z-matrix:
 Charge =  0 Multiplicity = 1

 SCF Done:  E(RB3LYP) =  -248.362546967     A.U. after   12 cycles
 SCF Done:  E(RB3LYP) =  -248.364010492     A.U. after   10 cycles
 SCF Done:  E(RB3LYP) =  -248.364023798     A.U. after    8 cycles
 Optimization completed.
    -- Stationary point found.
 Normal termination of Gaussian 16 at Wed Nov 23 18:53:09 2022.

 ----------------------------------------------------------------------
 #P Geom=AllCheck Guess=TCheck SCRF=Check GenChk RB3LYP/6-311G(d,p) Fre
 q
 ----------------------------------------------------------------------

 Structure from the checkpoint file:  "Py.chk"
 -------------------
 Title Card Required
 -------------------
 Charge =  0 Multiplicity = 1

                         Standard orientation:
 ---------------------------------------------------------------------
 Center     Atomic      Atomic             Coordinates (Angstroms)
 Number     Number       Type             X           Y           Z
 ---------------------------------------------------------------------
      1          6           0       -1.141023   -0.720354   -0.000217
      2          6           0       -1.195851    0.671534   -0.000122
      3          6           0        0.000173    1.382157    0.000097
      4          6           0        1.196018    0.671250    0.000213
      5          6           0        1.140844   -0.720623    0.000123
      6          7           0       -0.000176   -1.416744   -0.000094
      7          1           0        0.000275    2.466069    0.000169
      8          1           0       -2.056055   -1.305755   -0.000373
      9          1           0       -2.152264    1.179962   -0.000240
     10          1           0        2.152577    1.179407    0.000350
     11          1           0        2.055726   -1.306254    0.000184
 ---------------------------------------------------------------------

 SCF Done:  E(RB3LYP) =  -248.364023798     A.U. after    1 cycles

 The electronic state is 1-A.
 Alpha  occ. eigenvalues --  -14.30818 -10.20852 -10.20851 -10.19600 -10.18604
 Alpha  occ. eigenvalues --  -10.18602  -0.94676  -0.81064  -0.76712  -0.63518
 Alpha  occ. eigenvalues --   -0.63380  -0.53506  -0.48686  -0.47579  -0.43540
 Alpha  occ. eigenvalues --   -0.41032  -0.40373  -0.37053  -0.29479  -0.27045
 Alpha  occ. eigenvalues --   -0.25968
 Alpha virt. eigenvalues --   -0.03325  -0.02083   0.04176   0.07188   0.08589
 Alpha virt. eigenvalues --    0.11006   0.11995   0.13334   0.20843   0.26205
 Alpha virt. eigenvalues --    0.27657   0.27941   0.30917   0.34376   0.37957

 Mulliken charges:
               1
     1  C    0.060944
     2  C   -0.179319
     3  C   -0.005301
     4  C   -0.179314
     5  C    0.060937
     6  N   -0.288834
     7  H    0.105204
     8  H    0.111909
     9  H    0.100932
    10  H    0.100933
    11  H    0.111910
 Sum of Mulliken charges =  -0.00000

 Dipole moment (field-independent basis, Debye):
    X=              0.0003    Y=              2.1876    Z=              0.0001  Tot=              2.1876
 Quadrupole moment (field-independent basis, Debye-Ang):
   XX=            -29.4555   YY=            -36.2370   ZZ=            -37.6524
   XY=             -0.0009   XZ=              0.0011   YZ=              0.0001

  Exact polarizability:  71.226  -0.001  65.001   0.006   0.003  26.893
 Approx polarizability: 116.986  -0.001 112.341   0.011   0.005  40.827

                      1                      2                      3
                      A                      A                      A
 Frequencies --    383.4904               419.8171               618.0388
 Red. masses --      2.5320                 3.7451                 7.1411
 Frc consts  --      0.2194                 0.3889                 1.6071
 IR Inten    --      0.0000                 3.5476                 4.3254

                      4                      5                      6
                      A                      A                      A
 Frequencies --    671.5033               718.1991               763.9865
 Red. masses --      6.3498                 1.3141                 2.4740
 Frc consts  --      1.6870                 0.3994                 0.8508
 IR Inten    --      0.3374                65.5128                 7.1700

                      7                      8                      9
                      A                      A                      A
 Frequencies --    897.4904               957.5288              1003.3928
 Red. masses --      1.2474                 1.3367                 1.4779
 Frc consts  --      0.5920                 0.7221                 0.8767
 IR Inten    --      0.0000                 0.0198                 0.0000

                     10                     11                     12
                      A                      A                      A
 Frequencies --   1012.5398              1015.4664              1051.5073
 Red. masses --      7.0831                 1.3023                 4.4584
 Frc consts  --      4.2786                 0.7912                 2.9044
 IR Inten    --      6.7674                 0.0002                 7.0499

                     13                     14                     15
                      A                      A                      A
 Frequencies --   1077.7630              1094.7074              1171.1913
 Red. masses --      1.7678                 1.7305                 1.1484
 Frc consts  --      1.2098                 1.2218                 0.9281
 IR Inten    --      0.0223                 3.9850                 2.1811

                     16                     17                     18
                      A                      A                      A
 Frequencies --   1242.3628              1283.2916              1383.6221
 Red. masses --      1.2816                 6.8597                 1.1977
 Frc consts  --      1.1655                 6.6559                 1.3509
 IR Inten    --      3.5169                 0.1273                 0.0740

                     19                     20                     21
                      A                      A                      A
 Frequencies --   1472.5165              1512.2810              1620.3728
 Red. masses --      2.0855                 1.9767                 5.6216
 Frc consts  --      2.6643                 2.6635                 8.6964
 IR Inten    --     27.9328                 3.7090                 8.6156

                     22                     23                     24
                      A                      A                      A
 Frequencies --   1627.4911              3145.7141              3148.3958
 Red. masses --      5.1265                 1.0874                 1.0905
 Frc consts  --      8.0004                 6.3399                 6.3687
 IR Inten    --     24.2906                30.7837                 7.7896

                     25                     26                     27
                      A                      A                      A
 Frequencies --   3171.3292              3187.6665              3195.7437
 Red. masses --      1.0887                 1.0933                 1.0989
 Frc consts  --      6.4513                 6.5452                 6.6126
 IR Inten    --      6.3231                29.0920                 7.6825

 - Thermochemistry -
 -------------------
 Temperature   298.150 Kelvin.  Pressure   1.00000 Atm.
 Atom     1 has atomic number  6 and mass  12.00000

 Molecular mass:    79.04220 amu.
 Principal axes and moments of inertia in atomic units:
                           1         2         3
     Eigenvalues --   297.91819 309.32053 607.23871
           X            0.00023   1.00000  -0.00014
           Y            1.00000  -0.00023  -0.00007
           Z            0.00007   0.00014   1.00000
 This molecule is an asymmetric top.
 Rotational symmetry number  1.
 Rotational temperatures (Kelvin)      0.29073     0.28001     0.14264
 Rotational constants (GHZ):           6.05784     5.83453     2.97205
 Zero-point vibrational energy     232359.1 (Joules/Mol)
                                   55.53516 (Kcal/Mol)
 Warning -- explicit consideration of   3 degrees of freedom as
           vibrations may cause significant error
 Vibrational temperatures:    551.76   604.02   889.22   966.14  1033.33
          (Kelvin)           1099.21  1291.29  1377.67  1443.66  1456.82
                             1461.03  1512.88  1550.66  1575.04  1685.08
                             1787.48  1846.37  1990.72  2118.62  2175.84
                             2331.36  2341.60  4525.98  4529.84  4562.84
                             4586.34  4597.96

 Zero-point correction=                           0.088501 (Hartree/Particle)
 Thermal correction to Energy=                    0.092776
 Thermal correction to Enthalpy=                  0.093720
 Thermal correction to Gibbs Free Energy=         0.061104
 Sum of electronic and zero-point Energies=           -248.275523
 Sum of electronic and thermal Energies=              -248.271248
 Sum of electronic and thermal Enthalpies=            -248.270304
 Sum of electronic and thermal Free Energies=         -248.302920

                     E (Thermal)             CV                S
                      KCal/Mol        Cal/Mol-Kelvin    Cal/Mol-Kelvin
 Total                   58.218             16.138             68.646
 Electronic               0.000              0.000              0.000
 Translational            0.889              2.981             39.017
 Rotational               0.889              2.981             25.529
 Vibrational             56.440             10.176              4.100
 Vibration     1          0.753              1.505              1.025
 Vibration     2          0.782              1.427              0.893
 Vibration     3          0.978              0.994              0.420

 Optimization completed.
    -- Stationary point found.
 Normal termination of Gaussian 16 at Wed Nov 23 18:53:46 2022.
