 Gaussian 16, Revision A.03,
 Gaussian 16:  ES64L-G16RevA.03 25-Dec-2016

 ----------------------------------------
 #p M052X/6-31G* scrf=(smd,solvent=water)
 ----------------------------------------

 -------------------
 Title Card Required
 -------------------
 Symbolic Z-matrix:
 Charge =  0 Multiplicity = 1

                         Standard orientation:
 ---------------------------------------------------------------------
 Center     Atomic      Atomic             Coordinates (Angstroms)
 Number     Number       Type             X           Y           Z
 ---------------------------------------------------------------------
      1          6           0       -3.117658   -1.254343   -0.726906
      2          1           0       -3.081879   -1.056127   -1.795178
      3          1           0       -4.148196   -1.334917   -0.390902
      4          1           0       -2.569008   -2.162649   -0.490977
      5          6           0       -1.036431   -0.021214   -0.488337
      6          1           0       -1.092979    0.110190   -1.568259
      7          1           0       -0.601290   -0.994161   -0.278436
      8          6           0       -2.531355   -0.369537    1.464019
      9          1           0       -2.133563    0.487850    1.997386
     10          1           0       -3.571377   -0.525574    1.739080
     11          1           0       -1.944702   -1.259259    1.679378
     12          6           0       -3.231942    1.143090   -0.328149
     13          1           0       -4.273592    0.982988   -0.061435
     14          1           0       -2.827980    1.969065    0.248384
     15          1           0       -3.140321    1.339789   -1.393665
     16          6           0       -0.217924    1.093931    0.140703
     17          1           0       -0.140363    0.967153    1.220045
     18          1           0       -0.692171    2.058721   -0.043057
     19          6           0        1.183322    1.175999   -0.458013
     20          1           0        1.679444    2.084507   -0.118020
     21          1           0        1.164725    1.180225   -1.548679
     22          7           0       -2.472905   -0.107271   -0.008994
     23         16           0        2.301918   -0.161478    0.016276
     24          8           0        2.276116   -0.221620    1.497670
     25          8           0        1.793454   -1.405946   -0.607749
     26          8           0        3.626034    0.237464   -0.516548
 ---------------------------------------------------------------------

 SCF Done:  E(RM052X) =  -916.160352561     A.U. after   12 cycles

 The electronic state is 1-A.
 Alpha  occ. eigenvalues --  -90.22875 -19.64320 -19.64277 -19.64187 -14.92483
 Alpha  occ. eigenvalues --  -10.62130 -10.61251 -10.61229 -10.61209 -10.59223
 Alpha  occ. eigenvalues --  -10.58377  -8.43531  -6.36164  -6.36159  -6.36046
 Alpha  occ. eigenvalues --   -1.22176  -1.13221  -1.07307  -1.07254  -0.91841
 Alpha  occ. eigenvalues --   -0.84491  -0.84459  -0.83312  -0.74820  -0.69430
 Alpha  occ. eigenvalues --   -0.64698  -0.60449  -0.59945  -0.58179  -0.56994
 Alpha  occ. eigenvalues --   -0.54215  -0.53222  -0.52364  -0.50881  -0.49243
 Alpha  occ. eigenvalues --   -0.48279  -0.46799  -0.46338  -0.46131  -0.46080
 Alpha  occ. eigenvalues --   -0.44457  -0.42929  -0.41929  -0.40467  -0.40381
 Alpha  occ. eigenvalues --   -0.35890  -0.35691  -0.34226  -0.32032
 Alpha virt. eigenvalues --    0.10705   0.13995   0.16438   0.16858   0.17214
 Alpha virt. eigenvalues --    0.17729   0.18268   0.19478   0.19670   0.19939
 Alpha virt. eigenvalues --    0.21225   0.21585   0.21970   0.23155   0.23343

 Mulliken charges:
               1
     1  C   -0.376528
     2  H    0.243427
     3  H    0.243066
     4  H    0.244569
     5  C   -0.187842
     6  H    0.240573
     7  H    0.245053
     8  C   -0.382476
     9  H    0.247397
    10  H    0.243188
    11  H    0.243998
    12  C   -0.383014
    13  H    0.243542
    14  H    0.247194
    15  H    0.243121
    16  C   -0.368312
    17  H    0.218442
    18  H    0.225861
    19  C   -0.554029
    20  H    0.245351
    21  H    0.238190
    22  N   -0.429196
    23  S    1.156471
    24  O   -0.697300
    25  O   -0.692817
    26  O   -0.697930
 Sum of Mulliken charges =  -0.00000

 Dipole moment (field-independent basis, Debye):
    X=            -25.8838    Y=              4.3042    Z=             -1.4834  Tot=             26.2812
 Quadrupole moment (field-independent basis, Debye-Ang):
   XX=            -83.0794   YY=            -71.3037   ZZ=            -75.6880
   XY=              7.6807   XZ=             -1.4272   YZ=             -1.7653

 Normal termination of Gaussian 16 at Wed Oct 11 15:22:38 2023.
