 Gaussian 16, Revision A.03,
 Gaussian 16:  ES64L-G16RevA.03 25-Dec-2016

 -----------------------------------------------------------------
 #p opt freq b3lyp/6-311+g(2d,p) scrf=(smd,solvent=water) em=gd3bj
 -----------------------------------------------------------------

 -------------------
 Title Card Required
 -------------------
 Symbolic Z-matrix:
 Charge =  0 Multiplicity = 1

 SCF Done:  E(RB3LYP) =  -916.536286765     A.U. after   12 cycles
 SCF Done:  E(RB3LYP) =  -916.536340166     A.U. after    8 cycles
 SCF Done:  E(RB3LYP) =  -916.536354800     A.U. after    8 cycles
 SCF Done:  E(RB3LYP) =  -916.536358466     A.U. after    7 cycles
 SCF Done:  E(RB3LYP) =  -916.536359301     A.U. after    7 cycles
 SCF Done:  E(RB3LYP) =  -916.536360322     A.U. after    7 cycles
 SCF Done:  E(RB3LYP) =  -916.536361091     A.U. after    7 cycles
 SCF Done:  E(RB3LYP) =  -916.536362024     A.U. after    7 cycles
 SCF Done:  E(RB3LYP) =  -916.536362310     A.U. after    6 cycles
 Optimization completed.
    -- Stationary point found.
 Normal termination of Gaussian 16 at Wed Oct 11 15:13:38 2023.

 ----------------------------------------------------------------------
 #P Geom=AllCheck Guess=TCheck SCRF=Check GenChk RB3LYP/6-311+G(2d,p) F
 req
 ----------------------------------------------------------------------

 Structure from the checkpoint file:  "/data0/home/software/g16/scratch/Gau-2496368.chk"
 -------------------
 Title Card Required
 -------------------
 Charge =  0 Multiplicity = 1

                         Standard orientation:
 ---------------------------------------------------------------------
 Center     Atomic      Atomic             Coordinates (Angstroms)
 Number     Number       Type             X           Y           Z
 ---------------------------------------------------------------------
      1          6           0       -3.117658   -1.254343   -0.726906
      2          1           0       -3.081879   -1.056127   -1.795178
      3          1           0       -4.148196   -1.334917   -0.390902
      4          1           0       -2.569008   -2.162649   -0.490977
      5          6           0       -1.036431   -0.021214   -0.488337
      6          1           0       -1.092979    0.110190   -1.568259
      7          1           0       -0.601290   -0.994161   -0.278436
      8          6           0       -2.531355   -0.369537    1.464019
      9          1           0       -2.133563    0.487850    1.997386
     10          1           0       -3.571377   -0.525574    1.739080
     11          1           0       -1.944702   -1.259259    1.679378
     12          6           0       -3.231942    1.143090   -0.328149
     13          1           0       -4.273592    0.982988   -0.061435
     14          1           0       -2.827980    1.969065    0.248384
     15          1           0       -3.140321    1.339789   -1.393665
     16          6           0       -0.217924    1.093931    0.140703
     17          1           0       -0.140363    0.967153    1.220045
     18          1           0       -0.692171    2.058721   -0.043057
     19          6           0        1.183322    1.175999   -0.458013
     20          1           0        1.679444    2.084507   -0.118020
     21          1           0        1.164725    1.180225   -1.548679
     22          7           0       -2.472905   -0.107271   -0.008994
     23         16           0        2.301918   -0.161478    0.016276
     24          8           0        2.276116   -0.221620    1.497670
     25          8           0        1.793454   -1.405946   -0.607749
     26          8           0        3.626034    0.237464   -0.516548
 ---------------------------------------------------------------------

 SCF Done:  E(RB3LYP) =  -916.536362310     A.U. after    1 cycles

 The electronic state is 1-A.
 Alpha  occ. eigenvalues --  -89.03428 -19.09500 -19.09460 -19.09455 -14.43599
 Alpha  occ. eigenvalues --  -10.21578 -10.20863 -10.20848 -10.20825 -10.19190
 Alpha  occ. eigenvalues --  -10.18047  -8.09044  -6.05353  -6.05351  -6.05229
 Alpha  occ. eigenvalues --   -1.11099  -1.01492  -0.97565  -0.97549  -0.81272
 Alpha  occ. eigenvalues --   -0.74309  -0.74279  -0.73479  -0.65771  -0.60740
 Alpha  occ. eigenvalues --   -0.56676  -0.52637  -0.52150  -0.50680  -0.49409
 Alpha  occ. eigenvalues --   -0.46973  -0.46162  -0.45096  -0.43801  -0.42411
 Alpha  occ. eigenvalues --   -0.41538  -0.40298  -0.39616  -0.39565  -0.39548
 Alpha  occ. eigenvalues --   -0.38240  -0.36758  -0.35823  -0.34440  -0.34327
 Alpha  occ. eigenvalues --   -0.30076  -0.29876  -0.29186  -0.26284
 Alpha virt. eigenvalues --    0.00418   0.01740   0.02445   0.02753   0.03972
 Alpha virt. eigenvalues --    0.04371   0.04605   0.05042   0.05420   0.05812
 Alpha virt. eigenvalues --    0.06746   0.07037   0.07629   0.08093   0.08424

 Mulliken charges:
               1
     1  C   -0.312239
     2  H    0.193951
     3  H    0.190393
     4  H    0.193298
     5  C   -0.284747
     6  H    0.184463
     7  H    0.198114
     8  C   -0.277177
     9  H    0.193039
    10  H    0.189473
    11  H    0.198291
    12  C   -0.280641
    13  H    0.188895
    14  H    0.191401
    15  H    0.194821
    16  C    0.013767
    17  H    0.166386
    18  H    0.152318
    19  C   -0.655160
    20  H    0.193481
    21  H    0.193440
    22  N   -0.059352
    23  S    1.328528
    24  O   -0.764202
    25  O   -0.768260
    26  O   -0.762280
 Sum of Mulliken charges =   0.00000

 Dipole moment (field-independent basis, Debye):
    X=            -26.2144    Y=              4.5005    Z=             -1.5264  Tot=             26.6417
 Quadrupole moment (field-independent basis, Debye-Ang):
   XX=            -86.5753   YY=            -73.2112   ZZ=            -77.7395
   XY=              7.8529   XZ=             -1.4537   YZ=             -1.8938

  Exact polarizability: 159.857   0.612 147.989  -0.986   0.225 147.410
 Approx polarizability: 154.707   1.805 149.354  -1.486   0.858 151.291

                      1                      2                      3
                      A                      A                      A
 Frequencies --     21.9663                44.5876                84.6623
 Red. masses --      3.6104                 6.1679                 3.8832
 Frc consts  --      0.0010                 0.0072                 0.0164
 IR Inten    --      5.5520                 7.6076                10.4225

                      4                      5                      6
                      A                      A                      A
 Frequencies --    110.7647               191.6390               208.3622
 Red. masses --      2.3457                 3.6932                 2.7429
 Frc consts  --      0.0170                 0.0799                 0.0702
 IR Inten    --      7.5004                 5.1543                 5.7306

                      7                      8                      9
                      A                      A                      A
 Frequencies --    237.1286               248.6814               288.4508
 Red. masses --      6.5411                 1.1131                 1.0673
 Frc consts  --      0.2167                 0.0406                 0.0523
 IR Inten    --      1.5398                 0.0898                 0.7778

                     10                     11                     12
                      A                      A                      A
 Frequencies --    306.9520               328.0871               365.9479
 Red. masses --      1.0820                 2.9058                 2.2529
 Frc consts  --      0.0601                 0.1843                 0.1778
 IR Inten    --      0.0010                 2.4126                 0.1477

                     13                     14                     15
                      A                      A                      A
 Frequencies --    370.1395               427.7880               453.0420
 Red. masses --      2.3889                 3.9496                 2.3134
 Frc consts  --      0.1928                 0.4258                 0.2798
 IR Inten    --      0.8179                15.5630                 0.7589

                     16                     17                     18
                      A                      A                      A
 Frequencies --    460.5045               487.8146               488.9915
 Red. masses --      2.6895                 8.2610                 8.0116
 Frc consts  --      0.3360                 1.1582                 1.1287
 IR Inten    --      1.5406                46.3596                45.6714

                     19                     20                     21
                      A                      A                      A
 Frequencies --    524.3994               568.7311               700.3164
 Red. masses --      3.4269                 3.8176                 4.6211
 Frc consts  --      0.5552                 0.7275                 1.3353
 IR Inten    --     44.6777                29.0519               122.0218

                     22                     23                     24
                      A                      A                      A
 Frequencies --    759.4872               802.4189               863.4362
 Red. masses --      2.7921                 1.5282                 1.8797
 Frc consts  --      0.9489                 0.5798                 0.8257
 IR Inten    --      1.9860                 7.7241                 5.6312

                     25                     26                     27
                      A                      A                      A
 Frequencies --    929.1442               956.1404               974.0682
 Red. masses --      2.7926                 2.6917                 2.7995
 Frc consts  --      1.4204                 1.4498                 1.5650
 IR Inten    --     74.4446                 6.0588                31.2975

                     28                     29                     30
                      A                      A                      A
 Frequencies --    991.0837              1020.4449              1054.6356
 Red. masses --      8.1723                 2.1022                 1.8594
 Frc consts  --      4.7295                 1.2897                 1.2185
 IR Inten    --    265.6773                19.7891                72.5959

                     31                     32                     33
                      A                      A                      A
 Frequencies --   1086.5225              1090.1469              1105.1068
 Red. masses --      1.9848                 1.3032                 6.5096
 Frc consts  --      1.3806                 0.9125                 4.6839
 IR Inten    --     10.0251                 9.5536               593.5276

                     34                     35                     36
                      A                      A                      A
 Frequencies --   1108.6399              1147.0336              1153.8045
 Red. masses --     11.7800                 1.3284                 1.3576
 Frc consts  --      8.5305                 1.0297                 1.0648
 IR Inten    --    672.6124                44.7263                 8.9143

                     37                     38                     39
                      A                      A                      A
 Frequencies --   1208.2385              1232.4466              1272.2860
 Red. masses --      1.2859                 1.3132                 1.8141
 Frc consts  --      1.1060                 1.1753                 1.7302
 IR Inten    --     12.8304                 8.3168                 3.8548

                     40                     41                     42
                      A                      A                      A
 Frequencies --   1292.1155              1301.5686              1348.6193
 Red. masses --      1.5940                 1.9066                 1.3304
 Frc consts  --      1.5680                 1.9031                 1.4257
 IR Inten    --      0.8742                 0.1670                 1.1964

                     43                     44                     45
                      A                      A                      A
 Frequencies --   1369.4377              1384.0717              1433.3414
 Red. masses --      1.3496                 1.1897                 1.2717
 Frc consts  --      1.4912                 1.3428                 1.5394
 IR Inten    --      0.3596                 2.3114                 3.8236

                     46                     47                     48
                      A                      A                      A
 Frequencies --   1447.8661              1452.8312              1456.0658
 Red. masses --      1.0900                 1.1442                 1.1385
 Frc consts  --      1.3463                 1.4230                 1.4221
 IR Inten    --     14.0986                 1.7037                 1.2269

                     49                     50                     51
                      A                      A                      A
 Frequencies --   1474.0474              1475.9525              1481.3528
 Red. masses --      1.0651                 1.0893                 1.0415
 Frc consts  --      1.3635                 1.3982                 1.3466
 IR Inten    --      1.2302                 0.6252                 2.6327

                     52                     53                     54
                      A                      A                      A
 Frequencies --   1483.8662              1485.9326              1499.4754
 Red. masses --      1.1338                 1.0482                 1.0802
 Frc consts  --      1.4709                 1.3636                 1.4310
 IR Inten    --      3.6990                 1.7425                18.1823

                     55                     56                     57
                      A                      A                      A
 Frequencies --   1503.5134              1507.3014              1514.3741
 Red. masses --      1.0964                 1.0712                 1.0722
 Frc consts  --      1.4603                 1.4339                 1.4487
 IR Inten    --     46.3829                37.5922                80.2330

                     58                     59                     60
                      A                      A                      A
 Frequencies --   3068.8238              3073.5508              3080.0909
 Red. masses --      1.0594                 1.0598                 1.0302
 Frc consts  --      5.8781                 5.8986                 5.7585
 IR Inten    --     11.4264                 7.3103                 9.1748

                     61                     62                     63
                      A                      A                      A
 Frequencies --   3081.9026              3086.6003              3091.4611
 Red. masses --      1.0315                 1.0384                 1.0587
 Frc consts  --      5.7722                 5.8289                 5.9615
 IR Inten    --      9.0860                10.6764                 6.7891

                     64                     65                     66
                      A                      A                      A
 Frequencies --   3112.2577              3129.4287              3158.9968
 Red. masses --      1.0995                 1.1060                 1.1048
 Frc consts  --      6.2746                 6.3815                 6.4956
 IR Inten    --     12.7804                 8.2547                 4.5008

                     67                     68                     69
                      A                      A                      A
 Frequencies --   3168.6893              3169.6802              3174.5542
 Red. masses --      1.1085                 1.1087                 1.1082
 Frc consts  --      6.5579                 6.5631                 6.5804
 IR Inten    --      2.0473                 1.0033                10.8637

                     70                     71                     72
                      A                      A                      A
 Frequencies --   3176.9069              3182.5631              3186.0264
 Red. masses --      1.1083                 1.1073                 1.1068
 Frc consts  --      6.5904                 6.6080                 6.6194
 IR Inten    --      5.6321                 2.4747                 6.3374

 - Thermochemistry -
 -------------------
 Temperature   298.150 Kelvin.  Pressure   1.00000 Atm.
 Atom     1 has atomic number  6 and mass  12.00000

 Molecular mass:   181.07727 amu.
 Principal axes and moments of inertia in atomic units:
                           1         2         3
     Eigenvalues --   845.879644104.506644185.75792
           X            0.99997   0.00738  -0.00191
           Y           -0.00745   0.99917  -0.04005
           Z            0.00161   0.04006   0.99920
 This molecule is an asymmetric top.
 Rotational symmetry number  1.
 Warning -- assumption of classical behavior for rotation
           may cause significant error
 Rotational temperatures (Kelvin)      0.10240     0.02110     0.02069
 Rotational constants (GHZ):           2.13357     0.43970     0.43116
 Zero-point vibrational energy     589324.2 (Joules/Mol)
                                  140.85186 (Kcal/Mol)
 Warning -- explicit consideration of  20 degrees of freedom as
           vibrations may cause significant error
 Vibrational temperatures:     31.60    64.15   121.81   159.37   275.73
          (Kelvin)            299.79   341.18   357.80   415.02   441.64
                              472.04   526.52   532.55   615.49   651.83
                              662.56   701.86   703.55   754.49   818.28
                             1007.60  1092.73  1154.50  1242.29  1336.83
                             1375.67  1401.47  1425.95  1468.19  1517.39
                             1563.26  1568.48  1590.00  1595.09  1650.33
                             1660.07  1738.39  1773.22  1830.54  1859.07
                             1872.67  1940.36  1970.32  1991.37  2062.26
                             2083.16  2090.30  2094.95  2120.83  2123.57
                             2131.34  2134.95  2137.93  2157.41  2163.22
                             2168.67  2178.85  4415.35  4422.15  4431.56
                             4434.17  4440.93  4447.92  4477.84  4502.55
                             4545.09  4559.04  4560.46  4567.48  4570.86
                             4579.00  4583.98

 Zero-point correction=                           0.224462 (Hartree/Particle)
 Thermal correction to Energy=                    0.237076
 Thermal correction to Enthalpy=                  0.238021
 Thermal correction to Gibbs Free Energy=         0.184631
 Sum of electronic and zero-point Energies=           -916.311901
 Sum of electronic and thermal Energies=              -916.299286
 Sum of electronic and thermal Enthalpies=            -916.298342
 Sum of electronic and thermal Free Energies=         -916.351731

                     E (Thermal)             CV                S
                      KCal/Mol        Cal/Mol-Kelvin    Cal/Mol-Kelvin
 Total                  148.768             47.025            112.368
 Electronic               0.000              0.000              0.000
 Translational            0.889              2.981             41.488
 Rotational               0.889              2.981             31.053
 Vibrational            146.990             41.063             39.827
 Vibration     1          0.593              1.985              6.448
 Vibration     2          0.595              1.980              5.044
 Vibration     3          0.601              1.960              3.780
 Vibration     4          0.607              1.941              3.255
 Vibration     5          0.634              1.851              2.212
 Vibration     6          0.642              1.828              2.058
 Vibration     7          0.656              1.784              1.824
 Vibration     8          0.662              1.765              1.740
 Vibration     9          0.685              1.695              1.483
 Vibration    10          0.697              1.660              1.379
 Vibration    11          0.711              1.619              1.269
 Vibration    12          0.739              1.542              1.097
 Vibration    13          0.742              1.534              1.079
 Vibration    14          0.789              1.410              0.866
 Vibration    15          0.812              1.354              0.787
 Vibration    16          0.818              1.338              0.765
 Vibration    17          0.844              1.277              0.689
 Vibration    18          0.845              1.274              0.686
 Vibration    19          0.879              1.196              0.600
 Vibration    20          0.925              1.099              0.507

 Optimization completed.
    -- Stationary point found.
 Normal termination of Gaussian 16 at Wed Oct 11 15:19:34 2023.
