 Gaussian 16, Revision A.03,
 Gaussian 16:  ES64L-G16RevA.03 25-Dec-2016

 ----------------------------------------
 #p opt freq b3lyp/6-311+g(2d,p) em=gd3bj
 ----------------------------------------

 -------------------
 Title Card Required
 -------------------
 Symbolic Z-matrix:
 Charge =  0 Multiplicity = 1

 SCF Done:  E(RB3LYP) =  -594.291783582     A.U. after   19 cycles
 SCF Done:  E(RB3LYP) =  -594.274977671     A.U. after   13 cycles
 SCF Done:  E(RB3LYP) =  -594.290930673     A.U. after   12 cycles
 SCF Done:  E(RB3LYP) =  -594.284248601     A.U. after   13 cycles
 SCF Done:  E(RB3LYP) =  -594.291818612     A.U. after    9 cycles
 SCF Done:  E(RB3LYP) =  -594.291691531     A.U. after   12 cycles
 SCF Done:  E(RB3LYP) =  -594.289807985     A.U. after   12 cycles
 SCF Done:  E(RB3LYP) =  -594.291856339     A.U. after   12 cycles
 SCF Done:  E(RB3LYP) =  -594.291890155     A.U. after   12 cycles
 SCF Done:  E(RB3LYP) =  -594.291905118     A.U. after   11 cycles
 SCF Done:  E(RB3LYP) =  -594.301751867     A.U. after   11 cycles
 SCF Done:  E(RB3LYP) =  -594.301795013     A.U. after   11 cycles
 SCF Done:  E(RB3LYP) =  -594.301811705     A.U. after   11 cycles
 SCF Done:  E(RB3LYP) =  -594.301832873     A.U. after   10 cycles
 SCF Done:  E(RB3LYP) =  -594.301834688     A.U. after   10 cycles
 SCF Done:  E(RB3LYP) =  -594.301835006     A.U. after    8 cycles
 SCF Done:  E(RB3LYP) =  -594.301835316     A.U. after    8 cycles
 SCF Done:  E(RB3LYP) =  -594.301835435     A.U. after    8 cycles
 SCF Done:  E(RB3LYP) =  -594.301835513     A.U. after    8 cycles
 Optimization completed.
    -- Stationary point found.
 Normal termination of Gaussian 16 at Thu Oct 12 00:16:11 2023.

 ----------------------------------------------------------------------
 #P Geom=AllCheck Guess=TCheck SCRF=Check GenChk RB3LYP/6-311+G(2d,p) F
 req
 ----------------------------------------------------------------------

 Structure from the checkpoint file:  "/data0/home/software/g16/scratch/Gau-2559347.chk"
 -------------------
 Title Card Required
 -------------------
 Charge =  0 Multiplicity = 1

                         Standard orientation:
 ---------------------------------------------------------------------
 Center     Atomic      Atomic             Coordinates (Angstroms)
 Number     Number       Type             X           Y           Z
 ---------------------------------------------------------------------
      1          6           0       -0.661565    0.319837   -0.619480
      2          6           0       -1.915969    0.722676   -0.151435
      3          6           0       -2.746247   -0.239909    0.387240
      4          6           0       -2.326384   -1.573966    0.460066
      5          6           0       -1.084266   -1.908419   -0.003253
      6          1           0       -3.720335    0.039693    0.769858
      7          1           0        0.034766    1.016119   -1.076316
      8          1           0       -2.960145   -2.340426    0.883026
      9          1           0       -0.684824   -2.910652    0.039617
     10          6           0       -2.246290    2.182974   -0.182155
     11          1           0       -3.252727    2.371149    0.190912
     12          1           0       -1.522460    2.716604    0.438818
     13          1           0       -2.166230    2.586426   -1.193645
     14          7           0       -0.278136   -0.965657   -0.552093
     15          6           0        1.106356   -1.357709   -0.933094
     16          1           0        1.025535   -2.343410   -1.389500
     17          1           0        1.445846   -0.646838   -1.684367
     18          6           0        2.066187   -1.381993    0.277022
     19          1           0        1.493019   -1.658722    1.164408
     20          1           0        2.789984   -2.181765    0.099948
     21          6           0        2.800602   -0.053089    0.524909
     22          1           0        3.208991   -0.053415    1.536667
     23          1           0        3.617754    0.064277   -0.187930
     24          6           0        1.795568    1.099697    0.339727
     25          8           0        1.890067    1.768157   -0.714303
     26          8           0        0.848661    1.136840    1.173787
 ---------------------------------------------------------------------

 SCF Done:  E(RB3LYP) =  -594.301835513     A.U. after    1 cycles

 The electronic state is 1-A.
 Alpha  occ. eigenvalues --  -19.03622 -19.03309 -14.43504 -10.26348 -10.25519
 Alpha  occ. eigenvalues --  -10.24022 -10.22731 -10.22567 -10.22510 -10.22174
 Alpha  occ. eigenvalues --  -10.18494 -10.18249 -10.14683  -1.04701  -0.99945
 Alpha  occ. eigenvalues --   -0.90907  -0.87818  -0.83179  -0.80281  -0.74349
 Alpha  occ. eigenvalues --   -0.72467  -0.68141  -0.65767  -0.61613  -0.57044
 Alpha  occ. eigenvalues --   -0.55385  -0.52273  -0.50301  -0.48955  -0.47728
 Alpha  occ. eigenvalues --   -0.47120  -0.45550  -0.43364  -0.43265  -0.42591
 Alpha  occ. eigenvalues --   -0.40931  -0.40150  -0.39768  -0.38268  -0.37832
 Alpha  occ. eigenvalues --   -0.37393  -0.34286  -0.33970  -0.31852  -0.29567
 Alpha  occ. eigenvalues --   -0.22723  -0.21084  -0.20444
 Alpha virt. eigenvalues --   -0.08966  -0.05818  -0.01990  -0.00265   0.00425
 Alpha virt. eigenvalues --    0.01450   0.02454   0.03083   0.03914   0.04345
 Alpha virt. eigenvalues --    0.04605   0.05334   0.05558   0.06887   0.06981

 Mulliken charges:
               1
     1  C   -0.506994
     2  C    0.617369
     3  C   -0.302237
     4  C   -0.122956
     5  C    0.040595
     6  H    0.103365
     7  H    0.215595
     8  H    0.107231
     9  H    0.122769
    10  C   -0.632681
    11  H    0.113883
    12  H    0.199814
    13  H    0.150055
    14  N    0.418792
    15  C   -0.304944
    16  H    0.121240
    17  H    0.176465
    18  C    0.016631
    19  H    0.115820
    20  H    0.103980
    21  C   -0.388251
    22  H    0.117504
    23  H    0.126737
    24  C    0.528450
    25  O   -0.600240
    26  O   -0.537992
 Sum of Mulliken charges =  -0.00000

 Dipole moment (field-independent basis, Debye):
    X=             -5.7111    Y=             -6.8519    Z=             -1.2847  Tot=              9.0120
 Quadrupole moment (field-independent basis, Debye-Ang):
   XX=            -71.3334   YY=            -76.5530   ZZ=            -82.0264
   XY=             -9.8893   XZ=             -1.0942   YZ=              0.1373

  Exact polarizability: 163.649   0.370 143.495  -7.431  -5.043  98.725
 Approx polarizability: 231.156   6.868 226.998 -21.613 -12.454 168.224

                      1                      2                      3
                      A                      A                      A
 Frequencies --     61.8540                79.8542                90.8433
 Red. masses --      5.7021                 3.2824                 4.8698
 Frc consts  --      0.0129                 0.0123                 0.0237
 IR Inten    --      3.3250                 1.8435                13.9914

                      4                      5                      6
                      A                      A                      A
 Frequencies --    105.0658               120.4828               166.5401
 Red. masses --      1.0577                 9.1008                 3.7913
 Frc consts  --      0.0069                 0.0778                 0.0620
 IR Inten    --      1.0483                 4.2645                38.9125

                      7                      8                      9
                      A                      A                      A
 Frequencies --    191.8047               226.3722               287.9999
 Red. masses --      3.6315                 3.1004                 3.1988
 Frc consts  --      0.0787                 0.0936                 0.1563
 IR Inten    --     19.7192                 8.6169                 3.6189

                     10                     11                     12
                      A                      A                      A
 Frequencies --    305.9237               398.3017               432.9007
 Red. masses --      3.0293                 3.0100                 2.1477
 Frc consts  --      0.1670                 0.2814                 0.2371
 IR Inten    --      8.3541                 6.5004                 0.8599

                     13                     14                     15
                      A                      A                      A
 Frequencies --    441.9119               477.3905               521.4748
 Red. masses --      3.1120                 2.9956                 4.2703
 Frc consts  --      0.3581                 0.4022                 0.6842
 IR Inten    --      5.0250                14.0405                 0.2743

                     16                     17                     18
                      A                      A                      A
 Frequencies --    542.7592               578.5663               629.3328
 Red. masses --      4.6310                 3.0112                 5.1591
 Frc consts  --      0.8038                 0.5939                 1.2039
 IR Inten    --      2.3612                 0.9734                12.8014

                     19                     20                     21
                      A                      A                      A
 Frequencies --    702.9785               735.1487               766.4000
 Red. masses --      2.3365                 3.6022                 2.9427
 Frc consts  --      0.6803                 1.1470                 1.0184
 IR Inten    --     56.3528                 1.9145                 3.5039

                     22                     23                     24
                      A                      A                      A
 Frequencies --    793.1447               827.4853               891.2176
 Red. masses --      1.6346                 3.1998                 3.0089
 Frc consts  --      0.6059                 1.2909                 1.4081
 IR Inten    --     20.6408                15.3990                 6.8065

                     25                     26                     27
                      A                      A                      A
 Frequencies --    900.6754               925.9372               926.3436
 Red. masses --      2.2604                 3.3669                 1.3332
 Frc consts  --      1.0804                 1.7008                 0.6740
 IR Inten    --      5.8031                 0.7771                 0.6308

                     28                     29                     30
                      A                      A                      A
 Frequencies --    976.5409               998.8543              1025.0366
 Red. masses --      1.3037                 1.6434                 1.7292
 Frc consts  --      0.7325                 0.9661                 1.0705
 IR Inten    --      2.0786                16.2693                 3.6978

                     31                     32                     33
                      A                      A                      A
 Frequencies --   1030.0735              1039.5092              1051.5807
 Red. masses --      1.8534                 2.0525                 2.5825
 Frc consts  --      1.1587                 1.3067                 1.6826
 IR Inten    --     14.2634                 1.0425                10.5893

                     34                     35                     36
                      A                      A                      A
 Frequencies --   1066.0500              1074.3678              1130.4788
 Red. masses --      2.5179                 1.5400                 1.6466
 Frc consts  --      1.6859                 1.0473                 1.2399
 IR Inten    --      2.3641                 4.4232                 1.8014

                     37                     38                     39
                      A                      A                      A
 Frequencies --   1161.7688              1200.1005              1218.6495
 Red. masses --      1.5874                 1.4343                 1.3399
 Frc consts  --      1.2624                 1.2171                 1.1724
 IR Inten    --     19.7100                 8.6924                 5.9244

                     40                     41                     42
                      A                      A                      A
 Frequencies --   1236.0471              1259.3658              1269.0847
 Red. masses --      1.3331                 1.4934                 2.5913
 Frc consts  --      1.2000                 1.3955                 2.4590
 IR Inten    --      0.5433                 7.9556                 4.2884

                     43                     44                     45
                      A                      A                      A
 Frequencies --   1327.8236              1345.4396              1370.4687
 Red. masses --      1.4544                 1.7820                 2.8547
 Frc consts  --      1.5108                 1.9006                 3.1590
 IR Inten    --      8.3650                36.8175                15.6497

                     46                     47                     48
                      A                      A                      A
 Frequencies --   1383.3901              1389.0747              1399.1897
 Red. masses --      1.2380                 1.3363                 2.8298
 Frc consts  --      1.3959                 1.5192                 3.2640
 IR Inten    --      9.5985                 4.7388                98.1385

                     49                     50                     51
                      A                      A                      A
 Frequencies --   1415.3237              1469.2030              1473.6489
 Red. masses --      1.2457                 1.4294                 1.1566
 Frc consts  --      1.4702                 1.8179                 1.4798
 IR Inten    --      4.7331                24.8017                 1.4660

                     52                     53                     54
                      A                      A                      A
 Frequencies --   1478.0368              1485.4280              1495.0034
 Red. masses --      1.0472                 1.0975                 1.1141
 Frc consts  --      1.3479                 1.4267                 1.4670
 IR Inten    --      9.4212                 5.0202                18.2384

                     55                     56                     57
                      A                      A                      A
 Frequencies --   1512.5887              1543.7016              1616.6927
 Red. masses --      1.3663                 2.2904                 7.7824
 Frc consts  --      1.8418                 3.2158                11.9845
 IR Inten    --     34.2597                60.8052               440.0385

                     58                     59                     60
                      A                      A                      A
 Frequencies --   1628.5873              1673.0383              3033.3740
 Red. masses --      4.4527                 4.4003                 1.0615
 Frc consts  --      6.9581                 7.2568                 5.7546
 IR Inten    --     24.6884                 8.3939                22.4465

                     61                     62                     63
                      A                      A                      A
 Frequencies --   3035.2325              3051.1489              3067.8474
 Red. masses --      1.0354                 1.0588                 1.0810
 Frc consts  --      5.6201                 5.8074                 5.9942
 IR Inten    --     10.3807                34.6007                14.4973

                     64                     65                     66
                      A                      A                      A
 Frequencies --   3079.2900              3091.6258              3100.9582
 Red. masses --      1.0800                 1.1004                 1.1064
 Frc consts  --      6.0334                 6.1967                 6.2686
 IR Inten    --     26.5528                 2.7761                27.6183

                     67                     68                     69
                      A                      A                      A
 Frequencies --   3114.2247              3117.8076              3129.7618
 Red. masses --      1.1022                 1.1032                 1.1070
 Frc consts  --      6.2980                 6.3182                 6.3890
 IR Inten    --     84.3893                 9.9210                 2.3397

                     70                     71                     72
                      A                      A                      A
 Frequencies --   3179.7624              3207.5689              3225.4326
 Red. masses --      1.0905                 1.0906                 1.0969
 Frc consts  --      6.4964                 6.6113                 6.7234
 IR Inten    --      4.5985                 1.0495                 0.2873

 - Thermochemistry -
 -------------------
 Temperature   298.150 Kelvin.  Pressure   1.00000 Atm.
 Atom     1 has atomic number  6 and mass  12.00000

 Molecular mass:   179.09463 amu.
 Principal axes and moments of inertia in atomic units:
                           1         2         3
     Eigenvalues --  1435.954142499.780403414.86079
           X            0.99766  -0.06832  -0.00294
           Y            0.06829   0.99762  -0.00970
           Z            0.00360   0.00948   0.99995
 This molecule is an asymmetric top.
 Rotational symmetry number  1.
 Warning -- assumption of classical behavior for rotation
           may cause significant error
 Rotational temperatures (Kelvin)      0.06032     0.03465     0.02536
 Rotational constants (GHZ):           1.25682     0.72196     0.52850
 Zero-point vibrational energy     570061.8 (Joules/Mol)
                                  136.24804 (Kcal/Mol)
 Warning -- explicit consideration of  17 degrees of freedom as
           vibrations may cause significant error
 Vibrational temperatures:     88.99   114.89   130.70   151.17   173.35
          (Kelvin)            239.61   275.96   325.70   414.37   440.16
                              573.07   622.85   635.81   686.86   750.29
                              780.91   832.43   905.47  1011.43  1057.71
                             1102.68  1141.16  1190.57  1282.26  1295.87
                             1332.22  1332.80  1405.02  1437.13  1474.80
                             1482.05  1495.62  1512.99  1533.81  1545.78
                             1626.51  1671.53  1726.68  1753.36  1778.40
                             1811.95  1825.93  1910.44  1935.79  1971.80
                             1990.39  1998.57  2013.12  2036.34  2113.86
                             2120.25  2126.57  2137.20  2150.98  2176.28
                             2221.04  2326.06  2343.17  2407.13  4364.35
                             4367.02  4389.92  4413.95  4430.41  4448.16
                             4461.59  4480.67  4485.83  4503.03  4574.97
                             4614.98  4640.68

 Zero-point correction=                           0.217125 (Hartree/Particle)
 Thermal correction to Energy=                    0.229230
 Thermal correction to Enthalpy=                  0.230174
 Thermal correction to Gibbs Free Energy=         0.178610
 Sum of electronic and zero-point Energies=           -594.084710
 Sum of electronic and thermal Energies=              -594.072606
 Sum of electronic and thermal Enthalpies=            -594.071662
 Sum of electronic and thermal Free Energies=         -594.123225

                     E (Thermal)             CV                S
                      KCal/Mol        Cal/Mol-Kelvin    Cal/Mol-Kelvin
 Total                  143.844             45.721            108.525
 Electronic               0.000              0.000              0.000
 Translational            0.889              2.981             41.455
 Rotational               0.889              2.981             30.884
 Vibrational            142.066             39.759             36.186
 Vibration     1          0.597              1.973              4.397
 Vibration     2          0.600              1.963              3.894
 Vibration     3          0.602              1.956              3.642
 Vibration     4          0.605              1.945              3.358
 Vibration     5          0.609              1.932              3.093
 Vibration     6          0.624              1.884              2.474
 Vibration     7          0.634              1.851              2.210
 Vibration     8          0.650              1.801              1.908
 Vibration     9          0.685              1.696              1.486
 Vibration    10          0.696              1.662              1.384
 Vibration    11          0.765              1.474              0.969
 Vibration    12          0.794              1.399              0.849
 Vibration    13          0.802              1.379              0.821
 Vibration    14          0.834              1.300              0.717
 Vibration    15          0.876              1.202              0.607
 Vibration    16          0.898              1.156              0.559
 Vibration    17          0.935              1.078              0.488

 Optimization completed.
    -- Stationary point found.
 Normal termination of Gaussian 16 at Thu Oct 12 00:24:14 2023.
