 Gaussian 16, Revision A.03,
 Gaussian 16:  ES64L-G16RevA.03 25-Dec-2016

 ---------------
 #p M052X/6-31G*
 ---------------

 -------------------
 Title Card Required
 -------------------
 Symbolic Z-matrix:
 Charge =  0 Multiplicity = 1

                         Standard orientation:
 ---------------------------------------------------------------------
 Center     Atomic      Atomic             Coordinates (Angstroms)
 Number     Number       Type             X           Y           Z
 ---------------------------------------------------------------------
      1          6           0       -0.661565    0.319837   -0.619480
      2          6           0       -1.915969    0.722676   -0.151435
      3          6           0       -2.746247   -0.239909    0.387240
      4          6           0       -2.326384   -1.573966    0.460066
      5          6           0       -1.084266   -1.908419   -0.003253
      6          1           0       -3.720335    0.039693    0.769858
      7          1           0        0.034766    1.016119   -1.076316
      8          1           0       -2.960145   -2.340426    0.883026
      9          1           0       -0.684824   -2.910652    0.039617
     10          6           0       -2.246290    2.182974   -0.182155
     11          1           0       -3.252727    2.371149    0.190912
     12          1           0       -1.522460    2.716604    0.438818
     13          1           0       -2.166230    2.586426   -1.193645
     14          7           0       -0.278136   -0.965657   -0.552093
     15          6           0        1.106356   -1.357709   -0.933094
     16          1           0        1.025535   -2.343410   -1.389500
     17          1           0        1.445846   -0.646838   -1.684367
     18          6           0        2.066187   -1.381993    0.277022
     19          1           0        1.493019   -1.658722    1.164408
     20          1           0        2.789984   -2.181766    0.099948
     21          6           0        2.800602   -0.053090    0.524909
     22          1           0        3.208991   -0.053416    1.536667
     23          1           0        3.617754    0.064276   -0.187930
     24          6           0        1.795568    1.099697    0.339727
     25          8           0        1.890067    1.768157   -0.714303
     26          8           0        0.848661    1.136840    1.173787
 ---------------------------------------------------------------------

 SCF Done:  E(RM052X) =  -593.986385756     A.U. after   16 cycles

 The electronic state is 1-A.
 Alpha  occ. eigenvalues --  -19.57235 -19.57089 -14.92640 -10.67157 -10.66354
 Alpha  occ. eigenvalues --  -10.64215 -10.63483 -10.63004 -10.62930 -10.61282
 Alpha  occ. eigenvalues --  -10.58278 -10.58127 -10.53809  -1.16461  -1.09803
 Alpha  occ. eigenvalues --   -0.99571  -0.98596  -0.93669  -0.90311  -0.83957
 Alpha  occ. eigenvalues --   -0.81761  -0.77028  -0.74405  -0.69906  -0.65071
 Alpha  occ. eigenvalues --   -0.62677  -0.59757  -0.57617  -0.55912  -0.54606
 Alpha  occ. eigenvalues --   -0.54113  -0.52298  -0.49939  -0.49816  -0.49048
 Alpha  occ. eigenvalues --   -0.47175  -0.46018  -0.45858  -0.44054  -0.43566
 Alpha  occ. eigenvalues --   -0.43149  -0.39736  -0.39323  -0.36925  -0.34287
 Alpha  occ. eigenvalues --   -0.26599  -0.25477  -0.25343
 Alpha virt. eigenvalues --   -0.03913  -0.00474   0.10473   0.13312   0.14489
 Alpha virt. eigenvalues --    0.15608   0.15965   0.17508   0.17819   0.18565
 Alpha virt. eigenvalues --    0.19786   0.20489   0.21368   0.23284   0.23547

 Mulliken charges:
               1
     1  C    0.114866
     2  C    0.048795
     3  C   -0.134540
     4  C   -0.223595
     5  C    0.083958
     6  H    0.203560
     7  H    0.306231
     8  H    0.210358
     9  H    0.226538
    10  C   -0.557532
    11  H    0.176009
    12  H    0.254367
    13  H    0.198649
    14  N   -0.418733
    15  C   -0.251796
    16  H    0.193462
    17  H    0.248729
    18  C   -0.330776
    19  H    0.187980
    20  H    0.173891
    21  C   -0.358130
    22  H    0.172941
    23  H    0.166670
    24  C    0.515548
    25  O   -0.600551
    26  O   -0.606900
 Sum of Mulliken charges =  -0.00000

 Dipole moment (field-independent basis, Debye):
    X=             -6.0382    Y=             -7.0283    Z=             -1.4450  Tot=              9.3779
 Quadrupole moment (field-independent basis, Debye-Ang):
   XX=            -69.1707   YY=            -73.5754   ZZ=            -79.8959
   XY=             -9.5478   XZ=             -1.3675   YZ=             -0.1073

 Normal termination of Gaussian 16 at Thu Oct 12 08:57:39 2023.
