 Gaussian 16, Revision A.03,
 Gaussian 16:  ES64L-G16RevA.03 25-Dec-2016

 -----------------------------------------------------------------
 #p opt freq b3lyp/6-311+g(2d,p) scrf=(smd,solvent=water) em=gd3bj
 -----------------------------------------------------------------

 -------------------
 Title Card Required
 -------------------
 Symbolic Z-matrix:
 Charge =  0 Multiplicity = 1

 SCF Done:  E(RB3LYP) =  -380.020969399     A.U. after   13 cycles
 SCF Done:  E(RB3LYP) =  -380.020978736     A.U. after    9 cycles
 SCF Done:  E(RB3LYP) =  -380.020980804     A.U. after    8 cycles
 Optimization completed.
    -- Stationary point found.
 Normal termination of Gaussian 16 at Wed Oct 11 11:43:34 2023.

 ----------------------------------------------------------------------
 #P Geom=AllCheck Guess=TCheck SCRF=Check GenChk RB3LYP/6-311+G(2d,p) F
 req
 ----------------------------------------------------------------------

 Structure from the checkpoint file:  "/data0/home/software/g16/scratch/Gau-2481497.chk"
 -------------------
 Title Card Required
 -------------------
 Charge =  0 Multiplicity = 1

                         Standard orientation:
 ---------------------------------------------------------------------
 Center     Atomic      Atomic             Coordinates (Angstroms)
 Number     Number       Type             X           Y           Z
 ---------------------------------------------------------------------
      1          6           0       -0.260831    0.681398   -0.000021
      2          6           0       -0.258761   -0.729424   -0.000058
      3          6           0        0.952087   -1.423810    0.000009
      4          6           0        2.125528   -0.683725    0.000128
      5          6           0        2.105657    0.722881    0.000161
      6          6           0        0.911784    1.430689    0.000072
      7          1           0        0.970376   -2.506876   -0.000108
      8          1           0        3.079386   -1.196578    0.000127
      9          1           0        3.043096    1.265031    0.000202
     10          1           0        0.893644    2.513115    0.000057
     11          1           0       -1.977903    1.968923   -0.000356
     12          6           0       -2.317159   -0.122270    0.000396
     13          1           0       -3.395783   -0.111102    0.000470
     14          7           0       -1.596620    1.033729   -0.000200
     15          7           0       -1.569472   -1.203293   -0.000445
 ---------------------------------------------------------------------

 SCF Done:  E(RB3LYP) =  -380.020980804     A.U. after    1 cycles

 The electronic state is 1-A.
 Alpha  occ. eigenvalues --  -14.36677 -14.30644 -10.23929 -10.21160 -10.19840
 Alpha  occ. eigenvalues --  -10.17829 -10.17426 -10.17278 -10.17047  -1.02354
 Alpha  occ. eigenvalues --   -0.88381  -0.85153  -0.74978  -0.74289  -0.63629
 Alpha  occ. eigenvalues --   -0.62040  -0.60403  -0.54907  -0.50384  -0.48462
 Alpha  occ. eigenvalues --   -0.45034  -0.44721  -0.43922  -0.41921  -0.37067
 Alpha  occ. eigenvalues --   -0.36157  -0.35226  -0.31655  -0.29256  -0.24035
 Alpha  occ. eigenvalues --   -0.23700
 Alpha virt. eigenvalues --   -0.03043   0.00506   0.00957   0.02170   0.02965
 Alpha virt. eigenvalues --    0.02970   0.04376   0.04611   0.05189   0.05472
 Alpha virt. eigenvalues --    0.07603   0.07845   0.08491   0.08683   0.10088

 Mulliken charges:
               1
     1  C    0.672672
     2  C    0.562771
     3  C   -0.607098
     4  C   -0.159665
     5  C   -0.161417
     6  C   -0.649354
     7  H    0.131230
     8  H    0.121819
     9  H    0.122751
    10  H    0.136853
    11  H    0.336814
    12  C    0.233402
    13  H    0.166733
    14  N   -0.371520
    15  N   -0.535990
 Sum of Mulliken charges =  -0.00000

 Dipole moment (field-independent basis, Debye):
    X=             -1.1626    Y=              5.2274    Z=              0.0009  Tot=              5.3551
 Quadrupole moment (field-independent basis, Debye-Ang):
   XX=            -41.4245   YY=            -47.7390   ZZ=            -56.8402
   XY=             -9.9236   XZ=             -0.0027   YZ=             -0.0021

  Exact polarizability: 192.733   0.762 150.933  -0.002   0.003  79.628
 Approx polarizability: 206.953  -1.428 171.959  -0.005   0.006  85.526

                      1                      2                      3
                      A                      A                      A
 Frequencies --    221.1484               255.5144               421.0845
 Red. masses --      4.1294                 4.9364                 4.3290
 Frc consts  --      0.1190                 0.1899                 0.4523
 IR Inten    --     15.2639                 9.5787                19.3954

                      4                      5                      6
                      A                      A                      A
 Frequencies --    432.2693               484.0994               554.5190
 Red. masses --      2.7242                 1.3922                 7.1313
 Frc consts  --      0.2999                 0.1922                 1.2920
 IR Inten    --     36.3431               138.7100                 0.8384

                      7                      8                      9
                      A                      A                      A
 Frequencies --    594.7928               634.8081               652.9600
 Red. masses --      3.1987                 6.6459                 2.3499
 Frc consts  --      0.6667                 1.5779                 0.5903
 IR Inten    --      8.3070                 0.4329                 9.8120

                     10                     11                     12
                      A                      A                      A
 Frequencies --    751.3972               782.8351               793.4505
 Red. masses --      1.3287                 3.4836                 4.9886
 Frc consts  --      0.4420                 1.2578                 1.8504
 IR Inten    --    147.8093                10.6088                12.0891

                     13                     14                     15
                      A                      A                      A
 Frequencies --    862.0770               892.8145               895.0962
 Red. masses --      1.5596                 1.4477                 5.4175
 Frc consts  --      0.6829                 0.6799                 2.5573
 IR Inten    --      0.0014                14.9310                 5.9667

                     16                     17                     18
                      A                      A                      A
 Frequencies --    946.9874               955.5058               985.8405
 Red. masses --      1.3774                 6.1418                 1.2903
 Frc consts  --      0.7278                 3.3038                 0.7388
 IR Inten    --      5.2718                 2.4315                 0.0033

                     19                     20                     21
                      A                      A                      A
 Frequencies --   1024.6870              1105.8665              1127.4323
 Red. masses --      2.1294                 1.5598                 1.5654
 Frc consts  --      1.3173                 1.1239                 1.1723
 IR Inten    --     22.0603                39.0821                 5.1380

                     22                     23                     24
                      A                      A                      A
 Frequencies --   1160.5509              1204.5522              1266.1499
 Red. masses --      1.1478                 2.3461                 2.4437
 Frc consts  --      0.9109                 2.0056                 2.3082
 IR Inten    --      2.7500                 7.3868                68.5540

                     25                     26                     27
                      A                      A                      A
 Frequencies --   1282.8703              1326.7165              1383.9996
 Red. masses --      2.3651                 2.2983                 4.0505
 Frc consts  --      2.2933                 2.3835                 4.5712
 IR Inten    --     74.2246                25.4107                42.9401

                     28                     29                     30
                      A                      A                      A
 Frequencies --   1412.3810              1478.6883              1509.6991
 Red. masses --      2.3653                 2.4879                 3.5117
 Frc consts  --      2.7799                 3.2051                 4.7157
 IR Inten    --     95.3118                52.3708                53.3418

                     31                     32                     33
                      A                      A                      A
 Frequencies --   1520.8019              1621.0716              1654.9770
 Red. masses --      2.7757                 6.4049                 6.5933
 Frc consts  --      3.7823                 9.9167                10.6399
 IR Inten    --     15.1703                 5.9679                14.2177

                     34                     35                     36
                      A                      A                      A
 Frequencies --   3172.2848              3181.6043              3189.8482
 Red. masses --      1.0868                 1.0895                 1.0942
 Frc consts  --      6.4437                 6.4979                 6.5600
 IR Inten    --      1.0195                 9.5318                22.9839

                     37                     38                     39
                      A                      A                      A
 Frequencies --   3197.1044              3260.1428              3622.5053
 Red. masses --      1.0966                 1.0991                 1.0824
 Frc consts  --      6.6042                 6.8827                 8.3689
 IR Inten    --     11.7677                 1.4097               240.4081

 - Thermochemistry -
 -------------------
 Temperature   298.150 Kelvin.  Pressure   1.00000 Atm.
 Atom     1 has atomic number  6 and mass  12.00000

 Molecular mass:   118.05310 amu.
 Principal axes and moments of inertia in atomic units:
                           1         2         3
     Eigenvalues --   456.087871073.940461530.02829
           X            0.99980  -0.02006  -0.00004
           Y            0.02006   0.99980  -0.00004
           Z            0.00004   0.00004   1.00000
 This molecule is an asymmetric top.
 Rotational symmetry number  1.
 Warning -- assumption of classical behavior for rotation
           may cause significant error
 Rotational temperatures (Kelvin)      0.18991     0.08065     0.05661
 Rotational constants (GHZ):           3.95700     1.68049     1.17955
 Zero-point vibrational energy     309959.2 (Joules/Mol)
                                   74.08203 (Kcal/Mol)
 Warning -- explicit consideration of   7 degrees of freedom as
           vibrations may cause significant error
 Vibrational temperatures:    318.18   367.63   605.85   621.94   696.51
          (Kelvin)            797.83   855.77   913.35   939.46  1081.09
                             1126.33  1141.60  1240.34  1284.56  1287.84
                             1362.50  1374.76  1418.40  1474.30  1591.10
                             1622.12  1669.77  1733.08  1821.71  1845.76
                             1908.85  1991.27  2032.10  2127.50  2172.12
                             2188.09  2332.36  2381.14  4564.21  4577.62
                             4589.48  4599.92  4690.62  5211.98

 Zero-point correction=                           0.118057 (Hartree/Particle)
 Thermal correction to Energy=                    0.124070
 Thermal correction to Enthalpy=                  0.125015
 Thermal correction to Gibbs Free Energy=         0.087919
 Sum of electronic and zero-point Energies=           -379.902924
 Sum of electronic and thermal Energies=              -379.896910
 Sum of electronic and thermal Enthalpies=            -379.895966
 Sum of electronic and thermal Free Energies=         -379.933062

                     E (Thermal)             CV                S
                      KCal/Mol        Cal/Mol-Kelvin    Cal/Mol-Kelvin
 Total                   77.855             24.897             78.075
 Electronic               0.000              0.000              0.000
 Translational            0.889              2.981             40.213
 Rotational               0.889              2.981             28.107
 Vibrational             76.078             18.935              9.755
 Vibration     1          0.648              1.809              1.950
 Vibration     2          0.666              1.753              1.692
 Vibration     3          0.784              1.424              0.888
 Vibration     4          0.793              1.400              0.851
 Vibration     5          0.840              1.285              0.699
 Vibration     6          0.910              1.130              0.535
 Vibration     7          0.952              1.043              0.459

 Optimization completed.
    -- Stationary point found.
 Normal termination of Gaussian 16 at Wed Oct 11 11:45:47 2023.
