 Gaussian 16, Revision A.03,
 Gaussian 16:  ES64L-G16RevA.03 25-Dec-2016

 ----------------------------------------
 #p M052X/6-31G* scrf=(smd,solvent=water)
 ----------------------------------------

 -------------------
 Title Card Required
 -------------------
 Symbolic Z-matrix:
 Charge =  0 Multiplicity = 1

                         Standard orientation:
 ---------------------------------------------------------------------
 Center     Atomic      Atomic             Coordinates (Angstroms)
 Number     Number       Type             X           Y           Z
 ---------------------------------------------------------------------
      1          6           0       -0.260831    0.681398   -0.000021
      2          6           0       -0.258761   -0.729424   -0.000058
      3          6           0        0.952087   -1.423810    0.000009
      4          6           0        2.125528   -0.683725    0.000128
      5          6           0        2.105657    0.722881    0.000161
      6          6           0        0.911784    1.430689    0.000072
      7          1           0        0.970376   -2.506876   -0.000108
      8          1           0        3.079386   -1.196578    0.000127
      9          1           0        3.043096    1.265031    0.000202
     10          1           0        0.893644    2.513115    0.000057
     11          1           0       -1.977903    1.968923   -0.000356
     12          6           0       -2.317159   -0.122270    0.000396
     13          1           0       -3.395783   -0.111102    0.000470
     14          7           0       -1.596620    1.033729   -0.000200
     15          7           0       -1.569472   -1.203293   -0.000445
 ---------------------------------------------------------------------

 SCF Done:  E(RM052X) =  -379.846050444     A.U. after   13 cycles

 The electronic state is 1-A.
 Alpha  occ. eigenvalues --  -14.85097 -14.78522 -10.64292 -10.61429 -10.59944
 Alpha  occ. eigenvalues --  -10.58142 -10.57740 -10.57614 -10.57329  -1.13882
 Alpha  occ. eigenvalues --   -0.98634  -0.95892  -0.84780  -0.84105  -0.72261
 Alpha  occ. eigenvalues --   -0.70429  -0.68579  -0.62721  -0.57594  -0.55614
 Alpha  occ. eigenvalues --   -0.52504  -0.51297  -0.50623  -0.48135  -0.42922
 Alpha  occ. eigenvalues --   -0.42073  -0.41556  -0.37303  -0.35002  -0.28357
 Alpha  occ. eigenvalues --   -0.27957
 Alpha virt. eigenvalues --    0.02276   0.06237   0.10501   0.16558   0.17456
 Alpha virt. eigenvalues --    0.21315   0.21744   0.23823   0.24819   0.25302
 Alpha virt. eigenvalues --    0.28023   0.30662   0.32891   0.35427   0.38524

 Mulliken charges:
               1
     1  C    0.288273
     2  C    0.165828
     3  C   -0.231168
     4  C   -0.224209
     5  C   -0.234797
     6  C   -0.201991
     7  H    0.204521
     8  H    0.200687
     9  H    0.203844
    10  H    0.216247
    11  H    0.421426
    12  C    0.204953
    13  H    0.250232
    14  N   -0.694125
    15  N   -0.569721
 Sum of Mulliken charges =  -0.00000

 Dipole moment (field-independent basis, Debye):
    X=             -1.1807    Y=              4.9852    Z=              0.0010  Tot=              5.1231
 Quadrupole moment (field-independent basis, Debye-Ang):
   XX=            -38.9418   YY=            -45.5733   ZZ=            -55.5356
   XY=             -9.3866   XZ=             -0.0027   YZ=             -0.0021

 Normal termination of Gaussian 16 at Wed Oct 11 11:47:49 2023.
