 Gaussian 16, Revision A.03,
 Gaussian 16:  ES64L-G16RevA.03 25-Dec-2016

 --------------------------------------
 #p opt freq b3lyp/6-311g(d,p) em=gd3bj
 --------------------------------------

 -------------------
 Title Card Required
 -------------------
 Symbolic Z-matrix:
 Charge =  0 Multiplicity = 1

 SCF Done:  E(RB3LYP) =  -594.157889047     A.U. after   33 cycles
 SCF Done:  E(RB3LYP) =  -594.188983179     A.U. after   22 cycles
 SCF Done:  E(RB3LYP) =  -594.207043987     A.U. after   21 cycles
 SCF Done:  E(RB3LYP) =  -594.216875827     A.U. after   21 cycles
 SCF Done:  E(RB3LYP) =  -594.224691954     A.U. after   18 cycles
 SCF Done:  E(RB3LYP) =  -594.234503140     A.U. after   16 cycles
 SCF Done:  E(RB3LYP) =  -594.240203799     A.U. after   15 cycles
 SCF Done:  E(RB3LYP) =  -594.239261739     A.U. after   14 cycles
 SCF Done:  E(RB3LYP) =  -594.245122897     A.U. after   14 cycles
 SCF Done:  E(RB3LYP) =  -594.249495294     A.U. after   15 cycles
 SCF Done:  E(RB3LYP) =  -594.262982017     A.U. after   15 cycles
 SCF Done:  E(RB3LYP) =  -594.263013390     A.U. after   11 cycles
 SCF Done:  E(RB3LYP) =  -594.263021343     A.U. after   11 cycles
 SCF Done:  E(RB3LYP) =  -594.263020260     A.U. after   10 cycles
 SCF Done:  E(RB3LYP) =  -594.263027897     A.U. after   10 cycles
 SCF Done:  E(RB3LYP) =  -594.263028201     A.U. after    9 cycles
 SCF Done:  E(RB3LYP) =  -594.263028788     A.U. after    9 cycles
 SCF Done:  E(RB3LYP) =  -594.263028806     A.U. after    7 cycles
 SCF Done:  E(RB3LYP) =  -594.263028811     A.U. after    6 cycles
 Optimization completed.
    -- Stationary point found.
 Normal termination of Gaussian 16 at Wed May 18 11:21:30 2022.

 ----------------------------------------------------------------------
 #P Geom=AllCheck Guess=TCheck SCRF=Check GenChk RB3LYP/6-311G(d,p) Fre
 q
 ----------------------------------------------------------------------

 Structure from the checkpoint file:  "MPyBA.chk"
 -------------------
 Title Card Required
 -------------------
 Charge =  0 Multiplicity = 1

                         Standard orientation:
 ---------------------------------------------------------------------
 Center     Atomic      Atomic             Coordinates (Angstroms)
 Number     Number       Type             X           Y           Z
 ---------------------------------------------------------------------
      1          6           0        0.880378    0.450850    0.153274
      2          6           0        2.105824    1.064377   -0.084084
      3          6           0        3.237882    0.254740   -0.192464
      4          6           0        3.127438   -1.126840   -0.057613
      5          6           0        1.887807   -1.682729    0.185041
      6          1           0        4.206929    0.702088   -0.384132
      7          1           0       -0.103375    0.953916    0.252361
      8          1           0        3.991580   -1.771900   -0.139232
      9          1           0        1.725960   -2.744808    0.300333
     10          6           0        2.173155    2.561341   -0.214502
     11          1           0        2.600463    2.847916   -1.179000
     12          1           0        1.180208    3.002204   -0.131544
     13          1           0        2.805967    2.988961    0.567910
     14          7           0        0.801159   -0.892980    0.286999
     15          6           0       -0.552445   -1.477563    0.524522
     16          1           0       -0.393386   -2.502621    0.859727
     17          1           0       -0.995752   -0.874972    1.315681
     18          6           0       -1.447838   -1.390116   -0.726926
     19          1           0       -0.976507   -0.720351   -1.451437
     20          1           0       -1.505415   -2.375060   -1.202089
     21          6           0       -2.843402   -0.849632   -0.396155
     22          1           0       -3.491043   -0.926168   -1.271590
     23          1           0       -3.311587   -1.463272    0.383592
     24          6           0       -2.864227    0.639382    0.086961
     25          8           0       -3.927845    1.237177   -0.038670
     26          8           0       -1.768354    1.071832    0.588932
 ---------------------------------------------------------------------

 SCF Done:  E(RB3LYP) =  -594.263028811     A.U. after    1 cycles

 The electronic state is 1-A.
 Alpha  occ. eigenvalues --  -19.00575 -18.99254 -14.45168 -10.28365 -10.25417
 Alpha  occ. eigenvalues --  -10.24895 -10.24597 -10.24588 -10.23410 -10.20284
 Alpha  occ. eigenvalues --  -10.19907 -10.17707 -10.13624  -1.05927  -0.96924
 Alpha  occ. eigenvalues --   -0.89314  -0.88461  -0.84697  -0.79895  -0.76042
 Alpha  occ. eigenvalues --   -0.72483  -0.69219  -0.66387  -0.61208  -0.58103
 Alpha  occ. eigenvalues --   -0.56675  -0.52711  -0.50969  -0.49790  -0.48888
 Alpha  occ. eigenvalues --   -0.47290  -0.45773  -0.45095  -0.43817  -0.42380
 Alpha  occ. eigenvalues --   -0.41445  -0.41163  -0.38777  -0.37386  -0.36243
 Alpha  occ. eigenvalues --   -0.35316  -0.34115  -0.32556  -0.31886  -0.30605
 Alpha  occ. eigenvalues --   -0.19810  -0.18983  -0.17273
 Alpha virt. eigenvalues --   -0.10884  -0.07301   0.00210   0.02799   0.03805
 Alpha virt. eigenvalues --    0.05030   0.06047   0.06868   0.08669   0.08961
 Alpha virt. eigenvalues --    0.10102   0.10445   0.10971   0.11145   0.12066

 Mulliken charges:
               1
     1  C    0.193178
     2  C   -0.279148
     3  C    0.091997
     4  C   -0.216309
     5  C    0.192307
     6  H    0.120612
     7  H    0.264097
     8  H    0.131794
     9  H    0.144926
    10  C   -0.253105
    11  H    0.134528
    12  H    0.155791
    13  H    0.136705
    14  N   -0.337106
    15  C   -0.110663
    16  H    0.113262
    17  H    0.186554
    18  C   -0.222084
    19  H    0.123839
    20  H    0.107079
    21  C   -0.287856
    22  H    0.119817
    23  H    0.108281
    24  C    0.325935
    25  O   -0.416118
    26  O   -0.528313
 Sum of Mulliken charges =  -0.00000

 Dipole moment (field-independent basis, Debye):
    X=             13.3995    Y=             -5.6714    Z=             -0.8103  Tot=             14.5728
 Quadrupole moment (field-independent basis, Debye-Ang):
   XX=            -92.7283   YY=            -71.5799   ZZ=            -78.5228
   XY=             14.7562   XZ=              0.4979   YZ=             -3.5949

  Exact polarizability: 180.498  -1.759 133.457  -1.153  -2.301  75.269
 Approx polarizability: 257.725 -12.004 210.100  -5.005  -5.189 118.554

                      1                      2                      3
                      A                      A                      A
 Frequencies --     25.6654                36.6016                61.7252
 Red. masses --      6.5898                 1.1965                 3.0701
 Frc consts  --      0.0026                 0.0009                 0.0069
 IR Inten    --      2.0813                 1.1652                 3.7736

                      4                      5                      6
                      A                      A                      A
 Frequencies --    100.8162               115.9400               170.9647
 Red. masses --      3.6375                 4.6575                 2.7505
 Frc consts  --      0.0218                 0.0369                 0.0474
 IR Inten    --      4.7902                 9.9410                11.9216

                      7                      8                      9
                      A                      A                      A
 Frequencies --    211.4170               228.1387               281.2513
 Red. masses --      3.1016                 4.1861                 5.4263
 Frc consts  --      0.0817                 0.1284                 0.2529
 IR Inten    --      2.0352                20.6436                 9.7001

                     10                     11                     12
                      A                      A                      A
 Frequencies --    291.6616               339.0418               432.4191
 Red. masses --      2.7826                 2.6545                 2.1837
 Frc consts  --      0.1395                 0.1798                 0.2406
 IR Inten    --      6.0647                 1.6646                 8.4648

                     13                     14                     15
                      A                      A                      A
 Frequencies --    455.0174               479.8919               522.4522
 Red. masses --      3.0744                 3.0304                 3.8789
 Frc consts  --      0.3750                 0.4112                 0.6238
 IR Inten    --      2.7675                 4.7781                 0.1537

                     16                     17                     18
                      A                      A                      A
 Frequencies --    547.5129               566.6389               601.2622
 Red. masses --      4.8017                 3.4338                 3.6374
 Frc consts  --      0.8481                 0.6496                 0.7748
 IR Inten    --      2.7349                 3.7962                 1.4224

                     19                     20                     21
                      A                      A                      A
 Frequencies --    682.4489               710.7241               756.8402
 Red. masses --      3.7554                 2.4443                 3.9462
 Frc consts  --      1.0305                 0.7275                 1.3318
 IR Inten    --      2.9464                32.0679                16.6293

                     22                     23                     24
                      A                      A                      A
 Frequencies --    790.3817               813.9597               864.6965
 Red. masses --      1.8153                 1.7028                 3.1330
 Frc consts  --      0.6682                 0.6647                 1.3802
 IR Inten    --     24.8043                29.7755                15.5909

                     25                     26                     27
                      A                      A                      A
 Frequencies --    895.7451               933.7221               944.8803
 Red. masses --      2.6051                 3.6895                 1.3496
 Frc consts  --      1.2315                 1.8952                 0.7099
 IR Inten    --      5.5460                14.3104                 0.0806

                     28                     29                     30
                      A                      A                      A
 Frequencies --    997.3140              1013.0458              1024.5768
 Red. masses --      1.3244                 1.6414                 1.5850
 Frc consts  --      0.7761                 0.9925                 0.9803
 IR Inten    --      1.1678                32.6768                16.1102

                     31                     32                     33
                      A                      A                      A
 Frequencies --   1037.0734              1046.3874              1060.6235
 Red. masses --      2.6832                 4.5541                 1.4795
 Frc consts  --      1.7003                 2.9379                 0.9806
 IR Inten    --      3.3444                21.5555                 0.5502

                     34                     35                     36
                      A                      A                      A
 Frequencies --   1070.5691              1125.3550              1128.9742
 Red. masses --      2.7234                 1.7242                 1.2932
 Frc consts  --      1.8390                 1.2865                 0.9712
 IR Inten    --      5.0877                 6.2557                 6.6387

                     37                     38                     39
                      A                      A                      A
 Frequencies --   1166.4707              1192.8031              1215.1237
 Red. masses --      1.8005                 1.2781                 1.4013
 Frc consts  --      1.4434                 1.0714                 1.2191
 IR Inten    --     36.8934                 5.5418                42.1882

                     40                     41                     42
                      A                      A                      A
 Frequencies --   1223.6716              1272.2104              1279.6794
 Red. masses --      1.3875                 3.0313                 1.6959
 Frc consts  --      1.2241                 2.8906                 1.6363
 IR Inten    --      7.0289                 6.2954                10.3771

                     43                     44                     45
                      A                      A                      A
 Frequencies --   1307.0408              1330.2717              1354.8387
 Red. masses --      2.3537                 1.4293                 1.5572
 Frc consts  --      2.3691                 1.4902                 1.6841
 IR Inten    --    126.4202                60.0380               102.2977

                     46                     47                     48
                      A                      A                      A
 Frequencies --   1359.4363              1379.3093              1395.2639
 Red. masses --      2.1044                 1.4730                 1.2395
 Frc consts  --      2.2914                 1.6512                 1.4216
 IR Inten    --     25.2927                21.5124                22.7554

                     49                     50                     51
                      A                      A                      A
 Frequencies --   1423.0977              1460.1865              1468.1490
 Red. masses --      1.2443                 1.4131                 1.1139
 Frc consts  --      1.4848                 1.7752                 1.4145
 IR Inten    --      5.8595                 3.2337                 4.4351

                     52                     53                     54
                      A                      A                      A
 Frequencies --   1478.4213              1491.4862              1494.3012
 Red. masses --      1.1374                 1.0430                 1.0864
 Frc consts  --      1.4647                 1.3670                 1.4293
 IR Inten    --     17.2460                11.4475                 9.5826

                     55                     56                     57
                      A                      A                      A
 Frequencies --   1511.6918              1548.4569              1621.7364
 Red. masses --      1.4184                 2.2486                 5.5155
 Frc consts  --      1.9098                 3.1766                 8.5467
 IR Inten    --     79.2127                40.6475                18.9342

                     58                     59                     60
                      A                      A                      A
 Frequencies --   1673.2227              1730.0069              2796.1051
 Red. masses --      4.3455                10.4188                 1.1175
 Frc consts  --      7.1679                18.3723                 5.1477
 IR Inten    --      3.2758               642.3280               542.8446

                     61                     62                     63
                      A                      A                      A
 Frequencies --   3015.9063              3023.4398              3037.2627
 Red. masses --      1.0699                 1.0633                 1.0376
 Frc consts  --      5.7336                 5.7267                 5.6395
 IR Inten    --     28.4153                36.0768                 9.2899

                     64                     65                     66
                      A                      A                      A
 Frequencies --   3060.5476              3072.7548              3087.9401
 Red. masses --      1.0871                 1.0690                 1.0934
 Frc consts  --      5.9998                 5.9470                 6.1430
 IR Inten    --     28.2472                62.6983                22.2428

                     67                     68                     69
                      A                      A                      A
 Frequencies --   3091.1001              3132.2173              3132.8858
 Red. masses --      1.1006                 1.1015                 1.1085
 Frc consts  --      6.1958                 6.3670                 6.4102
 IR Inten    --      9.4475                 2.9916                19.2584

                     70                     71                     72
                      A                      A                      A
 Frequencies --   3177.3978              3209.7531              3227.1675
 Red. masses --      1.0908                 1.0914                 1.0971
 Frc consts  --      6.4887                 6.6247                 6.7316
 IR Inten    --      3.4890                 0.9030                 0.3338

 - Thermochemistry -
 -------------------
 Temperature   298.150 Kelvin.  Pressure   1.00000 Atm.
 Atom     1 has atomic number  6 and mass  12.00000

 Molecular mass:   179.09463 amu.
 Principal axes and moments of inertia in atomic units:
                           1         2         3
     Eigenvalues --  1234.290763737.776494757.53803
           X            0.99940   0.03466   0.00126
           Y           -0.03466   0.99939  -0.00478
           Z           -0.00143   0.00473   0.99999
 This molecule is an asymmetric top.
 Rotational symmetry number  1.
 Warning -- assumption of classical behavior for rotation
           may cause significant error
 Rotational temperatures (Kelvin)      0.07017     0.02317     0.01821
 Rotational constants (GHZ):           1.46217     0.48284     0.37934
 Zero-point vibrational energy     567072.3 (Joules/Mol)
                                  135.53354 (Kcal/Mol)
 Warning -- explicit consideration of  18 degrees of freedom as
           vibrations may cause significant error
 Vibrational temperatures:     36.93    52.66    88.81   145.05   166.81
          (Kelvin)            245.98   304.18   328.24   404.66   419.64
                              487.81   622.15   654.67   690.46   751.69
                              787.75   815.27   865.08   981.89  1022.57
                             1088.92  1137.18  1171.11  1244.11  1288.78
                             1343.42  1359.47  1434.91  1457.55  1474.14
                             1492.12  1505.52  1526.00  1540.31  1619.13
                             1624.34  1678.29  1716.18  1748.29  1760.59
                             1830.43  1841.17  1880.54  1913.96  1949.31
                             1955.93  1984.52  2007.47  2047.52  2100.88
                             2112.34  2127.12  2145.92  2149.97  2174.99
                             2227.88  2333.32  2407.39  2489.09  4022.97
                             4339.22  4350.06  4369.94  4403.45  4421.01
                             4442.86  4447.40  4506.56  4507.52  4571.57
                             4618.12  4643.17

 Zero-point correction=                           0.215986 (Hartree/Particle)
 Thermal correction to Energy=                    0.228402
 Thermal correction to Enthalpy=                  0.229346
 Thermal correction to Gibbs Free Energy=         0.175425
 Sum of electronic and zero-point Energies=           -594.047042
 Sum of electronic and thermal Energies=              -594.034627
 Sum of electronic and thermal Enthalpies=            -594.033683
 Sum of electronic and thermal Free Energies=         -594.087604

                     E (Thermal)             CV                S
                      KCal/Mol        Cal/Mol-Kelvin    Cal/Mol-Kelvin
 Total                  143.324             45.993            113.487
 Electronic               0.000              0.000              0.000
 Translational            0.889              2.981             41.455
 Rotational               0.889              2.981             31.463
 Vibrational            141.547             40.032             40.569
 Vibration     1          0.593              1.985              6.139
 Vibration     2          0.594              1.982              5.435
 Vibration     3          0.597              1.973              4.401
 Vibration     4          0.604              1.948              3.438
 Vibration     5          0.608              1.936              3.167
 Vibration     6          0.626              1.878              2.425
 Vibration     7          0.643              1.823              2.031
 Vibration     8          0.651              1.798              1.894
 Vibration     9          0.681              1.708              1.526
 Vibration    10          0.687              1.689              1.464
 Vibration    11          0.719              1.597              1.217
 Vibration    12          0.793              1.400              0.851
 Vibration    13          0.813              1.350              0.781
 Vibration    14          0.836              1.295              0.710
 Vibration    15          0.877              1.200              0.604
 Vibration    16          0.903              1.145              0.549
 Vibration    17          0.923              1.103              0.511
 Vibration    18          0.959              1.029              0.447

 Optimization completed.
    -- Stationary point found.
 Normal termination of Gaussian 16 at Wed May 18 11:24:25 2022.
