 Gaussian 16, Revision A.03,
 Gaussian 16:  ES64L-G16RevA.03 25-Dec-2016

 -------------------------------------------------------
 #p B3LYP/6-311+G(2d,p) opt freq scrf(smd,solvent=water)
 -------------------------------------------------------

 -------------------
 Title Card Required
 -------------------
 Symbolic Z-matrix:
 Charge =  0 Multiplicity = 1

 SCF Done:  E(RB3LYP) =  -1651.88279101     A.U. after   13 cycles
 SCF Done:  E(RB3LYP) =  -1651.90396164     A.U. after   13 cycles
 SCF Done:  E(RB3LYP) =  -1651.84356098     A.U. after   12 cycles
 SCF Done:  E(RB3LYP) =  -1651.91116804     A.U. after   11 cycles
 SCF Done:  E(RB3LYP) =  -1651.91322307     A.U. after   10 cycles
 SCF Done:  E(RB3LYP) =  -1651.91655101     A.U. after   10 cycles
 SCF Done:  E(RB3LYP) =  -1651.91959073     A.U. after   11 cycles
 SCF Done:  E(RB3LYP) =  -1651.91735167     A.U. after   11 cycles
 SCF Done:  E(RB3LYP) =  -1651.92024706     A.U. after   10 cycles
 SCF Done:  E(RB3LYP) =  -1651.92006550     A.U. after   11 cycles
 SCF Done:  E(RB3LYP) =  -1651.92977239     A.U. after    7 cycles
 SCF Done:  E(RB3LYP) =  -1651.92977277     A.U. after    7 cycles
 SCF Done:  E(RB3LYP) =  -1651.92977343     A.U. after    6 cycles
 SCF Done:  E(RB3LYP) =  -1651.92977405     A.U. after    6 cycles
 SCF Done:  E(RB3LYP) =  -1651.92977474     A.U. after    7 cycles
 SCF Done:  E(RB3LYP) =  -1651.92977599     A.U. after    7 cycles
 SCF Done:  E(RB3LYP) =  -1651.92977637     A.U. after    6 cycles
 SCF Done:  E(RB3LYP) =  -1651.92977694     A.U. after    7 cycles
 SCF Done:  E(RB3LYP) =  -1651.92977728     A.U. after    6 cycles
 Optimization completed.
    -- Stationary point found.
 Normal termination of Gaussian 16 at Sun Dec 11 21:07:15 2022.

 ----------------------------------------------------------------------
 #P Geom=AllCheck Guess=TCheck SCRF=Check GenChk RB3LYP/6-311+G(2d,p) F
 req
 ----------------------------------------------------------------------

 Structure from the checkpoint file:  "/data0/home/software/g16/scratch/Gau-1564756.chk"
 -------------------
 Title Card Required
 -------------------
 Charge =  0 Multiplicity = 1

                         Standard orientation:
 ---------------------------------------------------------------------
 Center     Atomic      Atomic             Coordinates (Angstroms)
 Number     Number       Type             X           Y           Z
 ---------------------------------------------------------------------
      1          6           0       -4.470571   -1.082707   -0.062843
      2          6           0       -3.442363   -1.908771    0.255669
      3          6           0       -2.657219    0.150368    0.167157
      4          7           0       -3.958722    0.198776   -0.114152
      5          1           0       -5.510276   -1.287410   -0.249836
      6          1           0       -3.411910   -2.974815    0.398510
      7          1           0       -1.983681    0.994780    0.204702
      8          6           0       -4.721446    1.410164   -0.414956
      9          1           0       -5.504094    1.540188    0.330189
     10          1           0       -4.045911    2.260878   -0.391647
     11          1           0       -5.166614    1.319845   -1.403973
     12          7           0       -2.319610   -1.118787    0.403179
     13          6           0       -0.956678   -1.593394    0.680626
     14          1           0       -1.037121   -2.392070    1.417599
     15          1           0       -0.417324   -0.765045    1.132131
     16          6           0       -0.273265   -2.094581   -0.591056
     17          1           0       -0.899966   -2.868361   -1.041244
     18          1           0       -0.197716   -1.282545   -1.317610
     19          6           0        1.095986   -2.723011   -0.346679
     20          1           0        1.417183   -3.286622   -1.223120
     21          1           0        1.093202   -3.398043    0.511041
     22         16           0        2.448122   -1.567659   -0.047731
     23          8           0        3.663867   -2.382597    0.077948
     24          8           0        2.497323   -0.645319   -1.221579
     25          8           0        2.122365   -0.817669    1.201609
     26         15           0        1.014121    2.438636    0.066768
     27          8           0       -0.413611    2.540915    0.454555
     28          8           0        1.252638    1.664043   -1.290732
     29          1           0        1.735530    0.784508   -1.227991
     30          8           0        1.584741    3.909261   -0.150855
     31          1           0        2.514905    3.936785   -0.425587
     32          8           0        1.982686    1.807530    1.145052
     33          1           0        2.013618    0.803288    1.170323
 ---------------------------------------------------------------------

 SCF Done:  E(RB3LYP) =  -1651.92977728     A.U. after    1 cycles

 The electronic state is 1-A.
 Alpha  occ. eigenvalues --  -89.05436 -77.19237 -19.16218 -19.14863 -19.14706
 Alpha  occ. eigenvalues --  -19.11821 -19.11792 -19.11148 -19.09457 -14.40824
 Alpha  occ. eigenvalues --  -14.40572 -10.26639 -10.22443 -10.22334 -10.22090
 Alpha  occ. eigenvalues --  -10.21308 -10.20118 -10.18421  -8.11077  -6.67002
 Alpha  occ. eigenvalues --   -6.07427  -6.07372  -6.07218  -4.83307  -4.83297
 Alpha  occ. eigenvalues --   -4.83031  -1.13248  -1.10400  -1.07905  -1.03899
 Alpha  occ. eigenvalues --   -1.02847  -0.99821  -0.99511  -0.97763  -0.96148
 Alpha  occ. eigenvalues --   -0.82392  -0.79643  -0.76393  -0.71919  -0.66292
 Alpha  occ. eigenvalues --   -0.64699  -0.63658  -0.61441  -0.58763  -0.58338
 Alpha  occ. eigenvalues --   -0.56112  -0.55866  -0.51077  -0.50479  -0.49440
 Alpha  occ. eigenvalues --   -0.48602  -0.47844  -0.47765  -0.47148  -0.47022
 Alpha  occ. eigenvalues --   -0.45923  -0.45299  -0.45147  -0.43643  -0.42192
 Alpha  occ. eigenvalues --   -0.41628  -0.40911  -0.39938  -0.39594  -0.38057
 Alpha  occ. eigenvalues --   -0.37782  -0.36897  -0.36671  -0.36392  -0.36287
 Alpha  occ. eigenvalues --   -0.35834  -0.32150  -0.32045  -0.31781  -0.30858
 Alpha  occ. eigenvalues --   -0.30789  -0.30589  -0.28669  -0.27219
 Alpha virt. eigenvalues --   -0.02517  -0.00456   0.00174   0.01228   0.01365
 Alpha virt. eigenvalues --    0.02831   0.02957   0.03575   0.03991   0.04611
 Alpha virt. eigenvalues --    0.04946   0.05363   0.05695   0.05917   0.06343

 Mulliken charges:
               1
     1  C   -0.161309
     2  C   -0.044071
     3  C    0.027466
     4  N    0.085794
     5  H    0.175478
     6  H    0.181493
     7  H    0.241737
     8  C   -0.261339
     9  H    0.186921
    10  H    0.181862
    11  H    0.185515
    12  N    0.149448
    13  C   -0.550074
    14  H    0.185516
    15  H    0.189376
    16  C    0.172318
    17  H    0.151038
    18  H    0.163257
    19  C   -0.684420
    20  H    0.209919
    21  H    0.211752
    22  S    1.256884
    23  O   -0.654449
    24  O   -0.775977
    25  O   -0.786239
    26  P    1.557680
    27  O   -0.832286
    28  O   -0.744682
    29  H    0.475868
    30  O   -0.584760
    31  H    0.350733
    32  O   -0.747966
    33  H    0.487519
 Sum of Mulliken charges =   0.00000

 Dipole moment (field-independent basis, Debye):
    X=            -22.1507    Y=             -5.1555    Z=             -1.8194  Tot=             22.8154
 Quadrupole moment (field-independent basis, Debye-Ang):
   XX=            -94.7592   YY=           -120.9424   ZZ=           -129.4931
   XY=             28.4498   XZ=             -0.1636   YZ=             -5.1995

  Exact polarizability: 245.363 -11.407 237.815   7.784  -4.753 185.067
 Approx polarizability: 246.538  -9.742 242.657   8.351  -5.874 195.795

                      1                      2                      3
                      A                      A                      A
 Frequencies --     18.8288                35.8422                41.6916
 Red. masses --      8.1904                 4.7389                 5.5163
 Frc consts  --      0.0017                 0.0036                 0.0056
 IR Inten    --      4.8856                 1.7293                 0.5881

                      4                      5                      6
                      A                      A                      A
 Frequencies --     52.3255                63.7993                70.2712
 Red. masses --      6.3501                 3.7101                 7.7812
 Frc consts  --      0.0102                 0.0089                 0.0226
 IR Inten    --     16.3508                 8.0192                24.9449

                      7                      8                      9
                      A                      A                      A
 Frequencies --     73.2756                91.1812               115.3276
 Red. masses --      1.4033                 2.3982                 7.2444
 Frc consts  --      0.0044                 0.0117                 0.0568
 IR Inten    --      1.5698                 1.3940                 6.8332

                     10                     11                     12
                      A                      A                      A
 Frequencies --    120.4258               142.4433               156.1838
 Red. masses --      7.0787                10.8062                 8.1462
 Frc consts  --      0.0605                 0.1292                 0.1171
 IR Inten    --      9.6333                61.5370                 3.4896

                     13                     14                     15
                      A                      A                      A
 Frequencies --    207.5978               214.8386               241.9283
 Red. masses --      2.7909                 3.0583                 6.4404
 Frc consts  --      0.0709                 0.0832                 0.2221
 IR Inten    --      3.1189                 3.6501                16.2437

                     16                     17                     18
                      A                      A                      A
 Frequencies --    270.9939               280.9251               311.0599
 Red. masses --      2.1412                 2.7513                 4.4965
 Frc consts  --      0.0926                 0.1279                 0.2563
 IR Inten    --    130.7132                 6.5827                 6.0094

                     19                     20                     21
                      A                      A                      A
 Frequencies --    336.9023               362.8821               374.5250
 Red. masses --      2.8046                 2.2962                 4.2253
 Frc consts  --      0.1876                 0.1782                 0.3492
 IR Inten    --      0.3589                79.5146                78.3628

                     22                     23                     24
                      A                      A                      A
 Frequencies --    419.9307               435.3757               441.8674
 Red. masses --      2.6638                 8.1163                 4.7498
 Frc consts  --      0.2768                 0.9064                 0.5464
 IR Inten    --      1.3072                88.0248                52.6400

                     25                     26                     27
                      A                      A                      A
 Frequencies --    451.2983               483.7513               499.6062
 Red. masses --     12.0909                 7.8970                 6.8322
 Frc consts  --      1.4509                 1.0888                 1.0048
 IR Inten    --     41.3405                 6.8194               159.1116

                     28                     29                     30
                      A                      A                      A
 Frequencies --    502.1795               548.2640               629.1128
 Red. masses --      9.2647                 5.3879                 3.3818
 Frc consts  --      1.3766                 0.9542                 0.7886
 IR Inten    --     53.7841                52.8639                 0.7953

                     31                     32                     33
                      A                      A                      A
 Frequencies --    631.3589               667.5772               694.3913
 Red. masses --      3.4358                 3.7266                 3.5646
 Frc consts  --      0.8069                 0.9785                 1.0127
 IR Inten    --     27.1222                21.3682               114.9165

                     34                     35                     36
                      A                      A                      A
 Frequencies --    730.7168               744.9926               748.6405
 Red. masses --      1.0761                 1.6740                 1.8345
 Frc consts  --      0.3385                 0.5474                 0.6058
 IR Inten    --     84.8692                82.5097                14.6229

                     37                     38                     39
                      A                      A                      A
 Frequencies --    774.1396               800.4577               834.5647
 Red. masses --      1.1319                 1.4711                10.8740
 Frc consts  --      0.3997                 0.5553                 4.4623
 IR Inten    --    234.2746                11.4717               112.3056

                     40                     41                     42
                      A                      A                      A
 Frequencies --    853.3432               867.9401               899.7135
 Red. masses --      1.9501                 1.4034                 1.3383
 Frc consts  --      0.8367                 0.6229                 0.6383
 IR Inten    --     18.7664                 0.3988                42.5072

                     43                     44                     45
                      A                      A                      A
 Frequencies --    906.3892               925.4327               978.8258
 Red. masses --     12.8615                17.1297                 6.8442
 Frc consts  --      6.2254                 8.6435                 3.8635
 IR Inten    --    583.9510               324.7369               269.1061

                     46                     47                     48
                      A                      A                      A
 Frequencies --   1011.4134              1031.7606              1037.2104
 Red. masses --      2.6530                 3.4008                 3.7221
 Frc consts  --      1.5990                 2.1330                 2.3592
 IR Inten    --     63.9540               265.2772               109.2119

                     49                     50                     51
                      A                      A                      A
 Frequencies --   1042.8491              1054.9394              1067.7581
 Red. masses --      3.5628                 1.2152                 3.7349
 Frc consts  --      2.2829                 0.7968                 2.5088
 IR Inten    --     60.0418               148.0290               276.5686

                     52                     53                     54
                      A                      A                      A
 Frequencies --   1085.3512              1105.4293              1117.5215
 Red. masses --      2.3294                 1.3902                 1.3214
 Frc consts  --      1.6167                 1.0009                 0.9723
 IR Inten    --     27.1269                15.0568                 7.7137

                     55                     56                     57
                      A                      A                      A
 Frequencies --   1137.0283              1161.7405              1180.4305
 Red. masses --     12.7051                 1.3230                 1.5890
 Frc consts  --      9.6777                 1.0521                 1.3046
 IR Inten    --    822.7105                 0.8686               131.0497

                     58                     59                     60
                      A                      A                      A
 Frequencies --   1191.5906              1197.7021              1208.9336
 Red. masses --      1.1874                 1.4878                 3.7827
 Frc consts  --      0.9934                 1.2574                 3.2573
 IR Inten    --    295.4982               126.4985               547.1094

                     61                     62                     63
                      A                      A                      A
 Frequencies --   1234.7057              1299.5222              1302.1601
 Red. masses --      1.2458                 1.2927                 1.1966
 Frc consts  --      1.1190                 1.2862                 1.1954
 IR Inten    --     15.1144                 7.1655                 4.1911

                     64                     65                     66
                      A                      A                      A
 Frequencies --   1319.5600              1349.7100              1352.1396
 Red. masses --      1.4266                 1.5093                 1.2470
 Frc consts  --      1.4636                 1.6200                 1.3433
 IR Inten    --      1.4498                 8.1986                 2.4191

                     67                     68                     69
                      A                      A                      A
 Frequencies --   1359.0210              1403.9631              1418.5508
 Red. masses --      3.1437                 2.2818                 1.6775
 Frc consts  --      3.4209                 2.6500                 1.9888
 IR Inten    --      3.1178                 3.2309                 7.7990

                     70                     71                     72
                      A                      A                      A
 Frequencies --   1441.9209              1444.1359              1461.1669
 Red. masses --      2.0536                 1.2529                 1.2120
 Frc consts  --      2.5157                 1.5395                 1.5246
 IR Inten    --      8.4436                 7.8692                19.8699

                     73                     74                     75
                      A                      A                      A
 Frequencies --   1472.1639              1473.5016              1496.7329
 Red. masses --      1.0503                 1.0814                 1.1543
 Frc consts  --      1.3412                 1.3834                 1.5236
 IR Inten    --     23.5567                 3.9772                22.2190

                     76                     77                     78
                      A                      A                      A
 Frequencies --   1504.3492              1594.8435              1607.9828
 Red. masses --      1.1046                 3.6699                 3.7526
 Frc consts  --      1.4728                 5.4998                 5.7168
 IR Inten    --     23.2190                73.9112                40.1555

                     79                     80                     81
                      A                      A                      A
 Frequencies --   2975.3059              3027.7860              3048.4101
 Red. masses --      1.0814                 1.0762                 1.0604
 Frc consts  --      5.6402                 5.8128                 5.8057
 IR Inten    --    191.9504              5171.5958                21.2978

                     82                     83                     84
                      A                      A                      A
 Frequencies --   3070.8149              3076.2605              3086.8072
 Red. masses --      1.0634                 1.0323                 1.0937
 Frc consts  --      5.9084                 5.7558                 6.1402
 IR Inten    --      3.7616                21.8454                 4.4956

                     85                     86                     87
                      A                      A                      A
 Frequencies --   3095.7689              3125.4752              3149.5144
 Red. masses --      1.0675                 1.1061                 1.1072
 Frc consts  --      6.0275                 6.3662                 6.4708
 IR Inten    --     18.7241                 2.3642                 5.1701

                     88                     89                     90
                      A                      A                      A
 Frequencies --   3155.5340              3175.4999              3229.9323
 Red. masses --      1.1051                 1.1061                 1.1067
 Frc consts  --      6.4832                 6.5719                 6.8027
 IR Inten    --      4.5793                 3.1837               254.4004

                     91                     92                     93
                      A                      A                      A
 Frequencies --   3280.6531              3296.2397              3756.8689
 Red. masses --      1.0941                 1.1099                 1.0659
 Frc consts  --      6.9376                 7.1050                 8.8637
 IR Inten    --     21.7420                 9.3832               234.3422

 - Thermochemistry -
 -------------------
 Temperature   298.150 Kelvin.  Pressure   1.00000 Atm.
 Atom     1 has atomic number  6 and mass  12.00000

 Molecular mass:   302.03376 amu.
 Principal axes and moments of inertia in atomic units:
                           1         2         3
     Eigenvalues --  4615.828847366.79609**********
           X            1.00000  -0.00125   0.00217
           Y            0.00125   1.00000  -0.00190
           Z           -0.00217   0.00190   1.00000
 This molecule is an asymmetric top.
 Rotational symmetry number  1.
 Warning -- assumption of classical behavior for rotation
           may cause significant error
 Rotational temperatures (Kelvin)      0.01876     0.01176     0.00783
 Rotational constants (GHZ):           0.39099     0.24498     0.16315
 Zero-point vibrational energy     656581.0 (Joules/Mol)
                                  156.92663 (Kcal/Mol)
 Warning -- explicit consideration of  29 degrees of freedom as
           vibrations may cause significant error
 Vibrational temperatures:     27.09    51.57    59.98    75.28    91.79
          (Kelvin)            101.10   105.43   131.19   165.93   173.27
                              204.94   224.71   298.69   309.10   348.08
                              389.90   404.19   447.55   484.73   522.11
                              538.86   604.19   626.41   635.75   649.32
                              696.01   718.82   722.52   788.83   905.15
                              908.38   960.49   999.07  1051.34  1071.88
                             1077.13  1113.81  1151.68  1200.75  1227.77
                             1248.77  1294.49  1304.09  1331.49  1408.31
                             1455.20  1484.47  1492.31  1500.43  1517.82
                             1536.27  1561.58  1590.47  1607.86  1635.93
                             1671.49  1698.38  1714.43  1723.23  1739.39
                             1776.47  1869.72  1873.52  1898.55  1941.93
                             1945.43  1955.33  2019.99  2040.98  2074.60
                             2077.79  2102.29  2118.12  2120.04  2153.46
                             2164.42  2294.62  2313.53  4280.80  4356.31
                             4385.98  4418.22  4426.05  4441.23  4454.12
                             4496.86  4531.45  4540.11  4568.84  4647.15
                             4720.13  4742.55  5405.30

 Zero-point correction=                           0.250079 (Hartree/Particle)
 Thermal correction to Energy=                    0.269998
 Thermal correction to Enthalpy=                  0.270942
 Thermal correction to Gibbs Free Energy=         0.198801
 Sum of electronic and zero-point Energies=          -1651.679699
 Sum of electronic and thermal Energies=             -1651.659780
 Sum of electronic and thermal Enthalpies=           -1651.658835
 Sum of electronic and thermal Free Energies=        -1651.730976

                     E (Thermal)             CV                S
                      KCal/Mol        Cal/Mol-Kelvin    Cal/Mol-Kelvin
 Total                  169.426             71.969            151.832
 Electronic               0.000              0.000              0.000
 Translational            0.889              2.981             43.013
 Rotational               0.889              2.981             34.286
 Vibrational            167.649             66.007             74.534
 Vibration     1          0.593              1.986              6.754
 Vibration     2          0.594              1.982              5.477
 Vibration     3          0.594              1.981              5.177
 Vibration     4          0.596              1.977              4.728
 Vibration     5          0.597              1.972              4.336
 Vibration     6          0.598              1.968              4.146
 Vibration     7          0.599              1.967              4.063
 Vibration     8          0.602              1.955              3.635
 Vibration     9          0.608              1.937              3.177
 Vibration    10          0.609              1.932              3.094
 Vibration    11          0.616              1.911              2.771
 Vibration    12          0.620              1.896              2.596
 Vibration    13          0.641              1.829              2.065
 Vibration    14          0.645              1.818              2.002
 Vibration    15          0.658              1.776              1.789
 Vibration    16          0.675              1.727              1.590
 Vibration    17          0.681              1.709              1.528
 Vibration    18          0.700              1.653              1.357
 Vibration    19          0.718              1.602              1.227
 Vibration    20          0.737              1.549              1.110
 Vibration    21          0.746              1.524              1.061
 Vibration    22          0.783              1.427              0.892
 Vibration    23          0.796              1.393              0.841
 Vibration    24          0.802              1.379              0.821
 Vibration    25          0.810              1.358              0.792
 Vibration    26          0.840              1.286              0.700
 Vibration    27          0.855              1.251              0.659
 Vibration    28          0.858              1.245              0.653
 Vibration    29          0.903              1.143              0.548

                           ! Non-Optimized Parameters !
 Normal termination of Gaussian 16 at Sun Dec 11 21:33:22 2022.
