 Gaussian 16, Revision A.03,
 Gaussian 16:  ES64L-G16RevA.03 25-Dec-2016

 ----------------------------------------
 #p M052X/6-31G* scrf=(smd,solvent=water)
 ----------------------------------------

 -------------------
 Title Card Required
 -------------------
 Symbolic Z-matrix:
 Charge =  0 Multiplicity = 1

                         Standard orientation:
 ---------------------------------------------------------------------
 Center     Atomic      Atomic             Coordinates (Angstroms)
 Number     Number       Type             X           Y           Z
 ---------------------------------------------------------------------
      1          6           0       -0.615789    0.975671    0.000038
      2          6           0       -1.140510   -0.286058    0.000129
      3          6           0        0.996301   -0.528221   -0.000038
      4          7           0        0.749305    0.804106   -0.000002
      5          1           0        1.444695    1.536565   -0.000059
      6          1           0       -1.072329    1.950300    0.000084
      7          1           0       -2.179575   -0.571917    0.000223
      8          1           0        1.995703   -0.931333   -0.000107
      9          7           0       -0.124805   -1.225815   -0.000129
 ---------------------------------------------------------------------

 SCF Done:  E(RM052X) =  -226.203431631     A.U. after   12 cycles

 The electronic state is 1-A.
 Alpha  occ. eigenvalues --  -14.85031 -14.77853 -10.62390 -10.59665 -10.58120
 Alpha  occ. eigenvalues --   -1.13158  -0.97217  -0.84461  -0.69451  -0.67269
 Alpha  occ. eigenvalues --   -0.63987  -0.50861  -0.50585  -0.49972  -0.47406
 Alpha  occ. eigenvalues --   -0.34638  -0.34191  -0.28361
 Alpha virt. eigenvalues --    0.08459   0.11978   0.17013   0.21530   0.23312
 Alpha virt. eigenvalues --    0.23993   0.27816   0.30319   0.36514   0.40565
 Alpha virt. eigenvalues --    0.52489   0.56995   0.60021   0.64603   0.64979

 Mulliken charges:
               1
     1  C   -0.036380
     2  C   -0.123125
     3  C    0.161098
     4  N   -0.580235
     5  H    0.422213
     6  H    0.236266
     7  H    0.203308
     8  H    0.236477
     9  N   -0.519623
 Sum of Mulliken charges =  -0.00000

 Dipole moment (field-independent basis, Debye):
    X=              2.2536    Y=              4.6687    Z=              0.0002  Tot=              5.1842
 Quadrupole moment (field-independent basis, Debye-Ang):
   XX=            -20.8862   YY=            -28.5299   ZZ=            -31.5928
   XY=              0.6836   XZ=             -0.0008   YZ=             -0.0006

 Normal termination of Gaussian 16 at Wed Oct 11 11:54:04 2023.
