 Gaussian 16, Revision A.03,
 Gaussian 16:  ES64L-G16RevA.03 25-Dec-2016

 -----------------------------------------------------------------
 #p opt freq b3lyp/6-311+g(2d,p) scrf=(smd,solvent=water) em=gd3bj
 -----------------------------------------------------------------

 -------------------
 Title Card Required
 -------------------
 Symbolic Z-matrix:
 Charge =  0 Multiplicity = 1

 SCF Done:  E(RB3LYP) =  -226.314116740     A.U. after   12 cycles
 SCF Done:  E(RB3LYP) =  -226.314121486     A.U. after    8 cycles
 Optimization completed.
    -- Stationary point found.
 Normal termination of Gaussian 16 at Wed Oct 11 11:52:27 2023.

 ----------------------------------------------------------------------
 #P Geom=AllCheck Guess=TCheck SCRF=Check GenChk RB3LYP/6-311+G(2d,p) F
 req
 ----------------------------------------------------------------------

 Structure from the checkpoint file:  "/data0/home/software/g16/scratch/Gau-2485012.chk"
 -------------------
 Title Card Required
 -------------------
 Charge =  0 Multiplicity = 1

                         Standard orientation:
 ---------------------------------------------------------------------
 Center     Atomic      Atomic             Coordinates (Angstroms)
 Number     Number       Type             X           Y           Z
 ---------------------------------------------------------------------
      1          6           0        0.615790    0.975670   -0.000038
      2          6           0        1.140510   -0.286059   -0.000129
      3          6           0       -0.996301   -0.528220    0.000038
      4          7           0       -0.749304    0.804106    0.000002
      5          1           0       -1.444694    1.536566    0.000059
      6          1           0        1.072330    1.950299   -0.000084
      7          1           0        2.179575   -0.571919   -0.000223
      8          1           0       -1.995704   -0.931332    0.000107
      9          7           0        0.124804   -1.225815    0.000129
 ---------------------------------------------------------------------

 SCF Done:  E(RB3LYP) =  -226.314121486     A.U. after    1 cycles

 The electronic state is 1-A.
 Alpha  occ. eigenvalues --  -14.36672 -14.30204 -10.22419 -10.19698 -10.18368
 Alpha  occ. eigenvalues --   -1.01957  -0.87324  -0.74772  -0.61319  -0.59412
 Alpha  occ. eigenvalues --   -0.56215  -0.44286  -0.43744  -0.43627  -0.41312
 Alpha  occ. eigenvalues --   -0.29196  -0.29035  -0.23974
 Alpha virt. eigenvalues --    0.01132   0.01215   0.03541   0.03761   0.03862
 Alpha virt. eigenvalues --    0.05763   0.05914   0.05926   0.07489   0.09458
 Alpha virt. eigenvalues --    0.10849   0.11195   0.13065   0.14379   0.15435

 Mulliken charges:
               1
     1  C   -0.117852
     2  C   -0.023801
     3  C    0.122080
     4  N   -0.250276
     5  H    0.319146
     6  H    0.155440
     7  H    0.129675
     8  H    0.159656
     9  N   -0.494069
 Sum of Mulliken charges =  -0.00000

 Dipole moment (field-independent basis, Debye):
    X=             -2.2759    Y=              4.8949    Z=             -0.0002  Tot=              5.3981
 Quadrupole moment (field-independent basis, Debye-Ang):
   XX=            -21.7789   YY=            -30.0919   ZZ=            -32.6310
   XY=             -0.7316   XZ=             -0.0008   YZ=              0.0006

  Exact polarizability:  76.578   1.522  77.036  -0.002  -0.001  45.771
 Approx polarizability:  84.133  -0.585  86.731  -0.002  -0.001  48.415

                      1                      2                      3
                      A                      A                      A
 Frequencies --    534.6441               649.7266               682.3447
 Red. masses --      1.4786                 2.2012                 2.7174
 Frc consts  --      0.2490                 0.5475                 0.7454
 IR Inten    --    185.6154                17.7819                 7.3421

                      4                      5                      6
                      A                      A                      A
 Frequencies --    748.2424               840.3054               868.7066
 Red. masses --      1.2329                 1.4227                 1.3892
 Frc consts  --      0.4067                 0.5919                 0.6177
 IR Inten    --     85.2584                49.0382                 0.7190

                      7                      8                      9
                      A                      A                      A
 Frequencies --    923.6238               950.4381              1067.1586
 Red. masses --      5.4684                 4.3247                 1.6427
 Frc consts  --      2.7486                 2.3017                 1.1022
 IR Inten    --     11.9100                 3.9687                99.6241

                     10                     11                     12
                      A                      A                      A
 Frequencies --   1097.9221              1129.7119              1162.5070
 Red. masses --      1.4747                 1.7649                 3.2335
 Frc consts  --      1.0474                 1.3271                 2.5747
 IR Inten    --     33.0103                 3.9519                10.6915

                     13                     14                     15
                      A                      A                      A
 Frequencies --   1287.2404              1350.1725              1425.0108
 Red. masses --      1.6182                 2.8286                 2.9976
 Frc consts  --      1.5798                 3.0381                 3.5864
 IR Inten    --      4.8792                 9.8852                32.3917

                     16                     17                     18
                      A                      A                      A
 Frequencies --   1506.3620              1553.0236              3251.4518
 Red. masses --      2.8281                 3.0997                 1.0938
 Frc consts  --      3.7810                 4.4048                 6.8129
 IR Inten    --     41.7681                15.3402                 4.8685

                     19                     20                     21
                      A                      A                      A
 Frequencies --   3267.1837              3280.5140              3634.0792
 Red. masses --      1.0982                 1.1055                 1.0829
 Frc consts  --      6.9069                 7.0095                 8.4260
 IR Inten    --      1.7486                 0.7264               202.7723

 - Thermochemistry -
 -------------------
 Temperature   298.150 Kelvin.  Pressure   1.00000 Atm.
 Atom     1 has atomic number  6 and mass  12.00000

 Molecular mass:    68.03745 amu.
 Principal axes and moments of inertia in atomic units:
                           1         2         3
     Eigenvalues --   185.77746 190.69621 376.47366
           X           -0.37310   0.92779   0.00006
           Y            0.92779   0.37310   0.00005
           Z           -0.00002  -0.00007   1.00000
 This molecule is an asymmetric top.
 Rotational symmetry number  1.
 Rotational temperatures (Kelvin)      0.46622     0.45420     0.23007
 Rotational constants (GHZ):           9.71453     9.46396     4.79380
 Zero-point vibrational energy     186679.5 (Joules/Mol)
                                   44.61746 (Kcal/Mol)
 Warning -- explicit consideration of   1 degrees of freedom as
           vibrations may cause significant error
 Vibrational temperatures:    769.23   934.81   981.74  1076.55  1209.01
          (Kelvin)           1249.88  1328.89  1367.47  1535.40  1579.67
                             1625.40  1672.59  1852.05  1942.60  2050.27
                             2167.32  2234.45  4678.11  4700.75  4719.93
                             5228.63

 Zero-point correction=                           0.071102 (Hartree/Particle)
 Thermal correction to Energy=                    0.074838
 Thermal correction to Enthalpy=                  0.075782
 Thermal correction to Gibbs Free Energy=         0.044848
 Sum of electronic and zero-point Energies=           -226.243019
 Sum of electronic and thermal Energies=              -226.239284
 Sum of electronic and thermal Enthalpies=            -226.238340
 Sum of electronic and thermal Free Energies=         -226.269274

                     E (Thermal)             CV                S
                      KCal/Mol        Cal/Mol-Kelvin    Cal/Mol-Kelvin
 Total                   46.961             13.290             65.106
 Electronic               0.000              0.000              0.000
 Translational            0.889              2.981             38.570
 Rotational               0.889              2.981             24.104
 Vibrational             45.184              7.329              2.432
 Vibration     1          0.890              1.173              0.577

 Optimization completed.
    -- Stationary point found.
 Normal termination of Gaussian 16 at Wed Oct 11 11:53:00 2023.
