 Gaussian 16, Revision A.03,
 Gaussian 16:  ES64L-G16RevA.03 25-Dec-2016

 -----------------------------------
 #p opt freq B3LYP/6-311G** em=GD3BJ
 -----------------------------------

 -------------------
 Title Card Required
 -------------------
 Symbolic Z-matrix:
 Charge =  0 Multiplicity = 1

 SCF Done:  E(RB3LYP) =  -379.988108920     A.U. after   14 cycles
 SCF Done:  E(RB3LYP) =  -379.988285784     A.U. after   11 cycles
 SCF Done:  E(RB3LYP) =  -379.988295176     A.U. after    9 cycles
 Optimization completed.
    -- Stationary point found.
 Normal termination of Gaussian 16 at Wed Apr 20 09:14:18 2022.

 ----------------------------------------------------------------------
 #P Geom=AllCheck Guess=TCheck SCRF=Check GenChk RB3LYP/6-311G(d,p) Fre
 q
 ----------------------------------------------------------------------

 Structure from the checkpoint file:  "BI.chk"
 -------------------
 Title Card Required
 -------------------
 Charge =  0 Multiplicity = 1

                         Standard orientation:
 ---------------------------------------------------------------------
 Center     Atomic      Atomic             Coordinates (Angstroms)
 Number     Number       Type             X           Y           Z
 ---------------------------------------------------------------------
      1          6           0       -0.256970    0.690374    0.000051
      2          6           0       -0.266185   -0.724558   -0.000023
      3          6           0        0.942986   -1.425883   -0.000067
      4          6           0        2.122185   -0.694829   -0.000054
      5          6           0        2.112444    0.712881    0.000004
      6          6           0        0.923789    1.431560    0.000072
      7          1           0        0.941020   -2.508648   -0.000048
      8          1           0        3.073624   -1.213296   -0.000061
      9          1           0        3.054768    1.247896   -0.000002
     10          1           0        0.921268    2.515216    0.000083
     11          1           0       -1.969648    1.979179   -0.000180
     12          6           0       -2.319139   -0.127361   -0.000130
     13          1           0       -3.399428   -0.119890   -0.000187
     14          7           0       -1.594814    1.045151   -0.000025
     15          7           0       -1.573224   -1.198518    0.000206
 ---------------------------------------------------------------------

 SCF Done:  E(RB3LYP) =  -379.988295176     A.U. after    1 cycles

 The electronic state is 1-A.
 Alpha  occ. eigenvalues --  -14.37102 -14.29533 -10.23923 -10.21207 -10.19328
 Alpha  occ. eigenvalues --  -10.18023 -10.17366 -10.17088 -10.16857  -1.02134
 Alpha  occ. eigenvalues --   -0.88395  -0.84774  -0.74777  -0.74063  -0.63704
 Alpha  occ. eigenvalues --   -0.62546  -0.60228  -0.55168  -0.50402  -0.48673
 Alpha  occ. eigenvalues --   -0.44747  -0.44693  -0.43931  -0.42036  -0.37078
 Alpha  occ. eigenvalues --   -0.36058  -0.34711  -0.31188  -0.27699  -0.23594
 Alpha  occ. eigenvalues --   -0.23227
 Alpha virt. eigenvalues --   -0.02404   0.01283   0.02963   0.04516   0.05376
 Alpha virt. eigenvalues --    0.07492   0.08703   0.11014   0.12783   0.16724
 Alpha virt. eigenvalues --    0.19466   0.20285   0.23742   0.25074   0.27499

 Mulliken charges:
               1
     1  C    0.178429
     2  C   -0.014802
     3  C   -0.052682
     4  C   -0.103853
     5  C   -0.110004
     6  C   -0.045818
     7  H    0.096898
     8  H    0.092766
     9  H    0.092980
    10  H    0.088229
    11  H    0.229728
    12  C    0.177595
    13  H    0.111785
    14  N   -0.424125
    15  N   -0.317128
 Sum of Mulliken charges =  -0.00000

 Dipole moment (field-independent basis, Debye):
    X=             -0.8308    Y=              3.3766    Z=             -0.0007  Tot=              3.4773
 Quadrupole moment (field-independent basis, Debye-Ang):
   XX=            -43.3415   YY=            -47.8788   ZZ=            -55.7105
   XY=             -7.4529   XZ=              0.0017   YZ=              0.0000

  Exact polarizability: 120.557  -1.537  90.490   0.001   0.000  37.537
 Approx polarizability: 198.118  -3.380 163.740   0.003  -0.000  59.431

                      1                      2                      3
                      A                      A                      A
 Frequencies --    220.4324               256.8460               419.1419
 Red. masses --      4.1335                 5.0899                 4.3766
 Frc consts  --      0.1183                 0.1978                 0.4530
 IR Inten    --      8.3256                 3.2546                 7.9452

                      4                      5                      6
                      A                      A                      A
 Frequencies --    430.2558               450.8954               555.5140
 Red. masses --      2.8395                 1.3363                 7.1199
 Frc consts  --      0.3097                 0.1601                 1.2945
 IR Inten    --     15.3766                85.6229                 0.1923

                      7                      8                      9
                      A                      A                      A
 Frequencies --    590.7809               633.7661               652.0140
 Red. masses --      3.2807                 6.6443                 2.5696
 Frc consts  --      0.6746                 1.5724                 0.6436
 IR Inten    --      4.3003                 0.1218                 2.2835

                     10                     11                     12
                      A                      A                      A
 Frequencies --    752.6929               785.4412               795.5188
 Red. masses --      1.3323                 3.3292                 4.9800
 Frc consts  --      0.4447                 1.2101                 1.8569
 IR Inten    --     71.4796                 3.8821                 4.6097

                     13                     14                     15
                      A                      A                      A
 Frequencies --    853.5923               868.2091               893.3224
 Red. masses --      1.4065                 1.5834                 5.4192
 Frc consts  --      0.6038                 0.7032                 2.5480
 IR Inten    --      4.0537                 7.3086                 3.3005

                     16                     17                     18
                      A                      A                      A
 Frequencies --    944.3563               951.6662               984.1650
 Red. masses --      1.3649                 6.3712                 1.2786
 Frc consts  --      0.7172                 3.3997                 0.7297
 IR Inten    --      2.6269                 1.5689                 0.1222

                     19                     20                     21
                      A                      A                      A
 Frequencies --   1029.3034              1093.3912              1130.9941
 Red. masses --      2.0684                 1.7274                 1.6439
 Frc consts  --      1.2912                 1.2168                 1.2389
 IR Inten    --      5.1925                18.8279                 2.3589

                     22                     23                     24
                      A                      A                      A
 Frequencies --   1170.9917              1204.2927              1274.2420
 Red. masses --      1.1654                 1.9822                 2.0743
 Frc consts  --      0.9415                 1.6938                 1.9844
 IR Inten    --      1.8716                 1.1112                18.4824

                     25                     26                     27
                      A                      A                      A
 Frequencies --   1287.4891              1333.1275              1381.5499
 Red. masses --      2.5169                 2.3581                 3.1561
 Frc consts  --      2.4581                 2.4692                 3.5492
 IR Inten    --     31.5929                 8.7315                31.6222

                     28                     29                     30
                      A                      A                      A
 Frequencies --   1420.4309              1476.9167              1521.4547
 Red. masses --      2.3664                 2.5318                 3.8310
 Frc consts  --      2.8130                 3.2539                 5.2249
 IR Inten    --     27.3158                26.1747                 7.0715

                     31                     32                     33
                      A                      A                      A
 Frequencies --   1534.1746              1625.5968              1666.7875
 Red. masses --      3.3224                 6.2907                 6.6553
 Frc consts  --      4.6073                 9.7943                10.8937
 IR Inten    --     20.7218                 3.5780                 6.3705

                     34                     35                     36
                      A                      A                      A
 Frequencies --   3166.3154              3176.2623              3188.0492
 Red. masses --      1.0857                 1.0898                 1.0944
 Frc consts  --      6.4130                 6.4778                 6.5534
 IR Inten    --      0.0872                12.8513                22.1170

                     37                     38                     39
                      A                      A                      A
 Frequencies --   3198.4169              3229.4249              3663.6832
 Red. masses --      1.0958                 1.0971                 1.0809
 Frc consts  --      6.6048                 6.7415                 8.5479
 IR Inten    --     11.0608                 2.0889                62.8577

 - Thermochemistry -
 -------------------
 Temperature   298.150 Kelvin.  Pressure   1.00000 Atm.
 Atom     1 has atomic number  6 and mass  12.00000

 Molecular mass:   118.05310 amu.
 Principal axes and moments of inertia in atomic units:
                           1         2         3
     Eigenvalues --   457.610341075.605381533.21571
           X            0.99981  -0.01955   0.00000
           Y            0.01955   0.99981   0.00000
           Z           -0.00000  -0.00000   1.00000
 This molecule is an asymmetric top.
 Rotational symmetry number  1.
 Warning -- assumption of classical behavior for rotation
           may cause significant error
 Rotational temperatures (Kelvin)      0.18927     0.08053     0.05649
 Rotational constants (GHZ):           3.94384     1.67788     1.17710
 Zero-point vibrational energy     309901.6 (Joules/Mol)
                                   74.06827 (Kcal/Mol)
 Warning -- explicit consideration of   7 degrees of freedom as
           vibrations may cause significant error
 Vibrational temperatures:    317.15   369.54   603.05   619.04   648.74
          (Kelvin)            799.26   850.00   911.85   938.10  1082.96
                             1130.07  1144.57  1228.13  1249.16  1285.29
                             1358.72  1369.24  1415.99  1480.94  1573.15
                             1627.25  1684.80  1732.71  1833.35  1852.41
                             1918.07  1987.74  2043.68  2124.95  2189.03
                             2207.34  2338.87  2398.14  4555.62  4569.93
                             4586.89  4601.81  4646.42  5271.22

 Zero-point correction=                           0.118035 (Hartree/Particle)
 Thermal correction to Energy=                    0.124086
 Thermal correction to Enthalpy=                  0.125030
 Thermal correction to Gibbs Free Energy=         0.087871
 Sum of electronic and zero-point Energies=           -379.870260
 Sum of electronic and thermal Energies=              -379.864209
 Sum of electronic and thermal Enthalpies=            -379.863265
 Sum of electronic and thermal Free Energies=         -379.900424

                     E (Thermal)             CV                S
                      KCal/Mol        Cal/Mol-Kelvin    Cal/Mol-Kelvin
 Total                   77.865             25.014             78.208
 Electronic               0.000              0.000              0.000
 Translational            0.889              2.981             40.213
 Rotational               0.889              2.981             28.114
 Vibrational             76.088             19.052              9.881
 Vibration     1          0.647              1.810              1.956
 Vibration     2          0.666              1.751              1.683
 Vibration     3          0.782              1.429              0.895
 Vibration     4          0.791              1.404              0.858
 Vibration     5          0.810              1.359              0.793
 Vibration     6          0.911              1.128              0.533
 Vibration     7          0.948              1.051              0.466

 Optimization completed.
    -- Stationary point found.
 Normal termination of Gaussian 16 at Wed Apr 20 09:15:44 2022.
