                               Psi4 1.3.2 release

  ==> Input File <==

--------------------------------------------------------------------------
memory 180 GB

molecule dimer {
0 1
C      4.36400000   12.69300000   10.94100000
H      4.11600000   12.15500000   10.01400000
H      5.25500000   13.31300000   10.76700000
H      4.63500000   11.91400000   11.70100000
C      2.83500000   14.52400000   10.38400000
H      2.58500000   14.03800000    9.42600000
H      1.95500000   15.11400000   10.69900000
H      3.66200000   15.22900000   10.20300000
C      2.04200000   12.59000000   11.66100000
H      1.20900000   13.08900000   12.19600000
H      1.67100000   12.15900000   10.72300000
H      2.33500000   11.75200000   12.33900000
C      3.62600000   14.22500000   12.70900000
H      4.52500000   14.83600000   12.49400000
H      3.95100000   13.42900000   13.43800000
C      2.52200000   15.09100000   13.33500000
H      1.51300000   14.77800000   12.99000000
H      2.63900000   16.14900000   13.03800000
C      2.54900000   14.96300000   14.85900000
H      1.69700000   15.49200000   15.32000000
H      3.46100000   15.40600000   15.29400000
N      3.20100000   13.51300000   11.43100000
C      2.46300000   13.47600000   15.26200000
O      1.78000000   12.74500000   14.50600000
O      3.11700000   13.11500000   16.24399900
--
0 1
P      4.10900000   10.08200000   14.64900000
O      4.65300000    8.74600000   14.44400000
O      4.30400000   10.64500000   16.10800000
H      3.80800000   11.58500000   16.20400000
O      4.83100000   11.21000000   13.70500000
H      5.81200000   11.23400000   13.92000000
O      2.61400000   10.25400000   14.19400000
H      2.25200000   11.24700000   14.45300000
}

set {
    scf_type DF
    freeze_core True
    basis aug-cc-pVTZ
}

energy('sapt2+(3)dmp2')
--------------------------------------------------------------------------

  //              Dimer HF             //
    Molecular point group: c1
  Charge       = 0
  Multiplicity = 1
  Basis Set: AUG-CC-PVTZ
    Blend: AUG-CC-PVTZ
  Basis Set: (AUG-CC-PVTZ AUX)
    Blend: AUG-CC-PVTZ-JKFIT
  @DF-RHF Final Energy: -1120.33526639867500
    Total Energy =                      -1120.3352663986750031
  Basis Set: (AUG-CC-PVTZ AUX)
    Blend: AUG-CC-PVTZ-RI
	 Reference Energy          =   -1120.3352663986750031 [Eh]
	 Singles Energy            =      -0.0000000000000000 [Eh]
	 Same-Spin Energy          =      -0.7728896394024465 [Eh]
	 Opposite-Spin Energy      =      -2.3269936387404462 [Eh]
	 Correlation Energy        =      -3.0998832781428929 [Eh]
	 Total Energy              =   -1123.4351496768179004 [Eh]
	 SCS Total Energy          =   -1123.3852886449642483 [Eh]
  //            Monomer A HF           //
    Molecular point group: c1
  Multiplicity = 1
  Basis Set: AUG-CC-PVTZ
    Blend: AUG-CC-PVTZ
  Basis Set: (AUG-CC-PVTZ AUX)
    Blend: AUG-CC-PVTZ-JKFIT
  @DF-RHF Final Energy:  -478.08399860646540
    Total Energy =                       -478.0839986064654568
  Basis Set: (AUG-CC-PVTZ AUX)
	 Singles Energy            =      -0.0000000000000000 [Eh]
	 Same-Spin Energy          =      -0.4652658523195218 [Eh]
	 Opposite-Spin Energy      =      -1.4762245829240885 [Eh]
	 Correlation Energy        =      -1.9414904352436104 [Eh]
	 Total Energy              =    -480.0254890417090223 [Eh]
	 SCS Total Energy          =    -480.0105567234141404 [Eh]
  //            Monomer B HF           //
    Molecular point group: c1

    Geometry (in Angstrom), charge = 0, multiplicity = 1:

       Center              X                  Y                   Z               Mass
    ------------   -----------------  -----------------  -----------------  -----------------
      Gh(C)           1.010839236038     0.416887144902    -2.788064468265    12.000000000000
      Gh(H)           0.762839236038    -0.121112855098    -3.715064468265     1.007825032230
      Gh(H)           1.901839236038     1.036887144902    -2.962064468265     1.007825032230
      Gh(H)           1.281839236038    -0.362112855098    -2.028064468265     1.007825032230
      Gh(C)          -0.518160763962     2.247887144902    -3.345064468265    12.000000000000
      Gh(H)          -0.768160763962     1.761887144902    -4.303064468265     1.007825032230
      Gh(H)          -1.398160763962     2.837887144902    -3.030064468265     1.007825032230
      Gh(H)           0.308839236038     2.952887144902    -3.526064468265     1.007825032230
      Gh(C)          -1.311160763962     0.313887144902    -2.068064468265    12.000000000000
      Gh(H)          -2.144160763962     0.812887144902    -1.533064468265     1.007825032230
      Gh(H)          -1.682160763962    -0.117112855098    -3.006064468265     1.007825032230
      Gh(H)          -1.018160763962    -0.524112855098    -1.390064468265     1.007825032230
      Gh(C)           0.272839236038     1.948887144902    -1.020064468265    12.000000000000
      Gh(H)           1.171839236038     2.559887144902    -1.235064468265     1.007825032230
      Gh(H)           0.597839236038     1.152887144902    -0.291064468265     1.007825032230
      Gh(C)          -0.831160763962     2.814887144902    -0.394064468265    12.000000000000
      Gh(H)          -1.840160763962     2.501887144902    -0.739064468265     1.007825032230
      Gh(H)          -0.714160763962     3.872887144902    -0.691064468265     1.007825032230
      Gh(C)          -0.804160763962     2.686887144902     1.129935531735    12.000000000000
      Gh(H)          -1.656160763962     3.215887144902     1.590935531735     1.007825032230
      Gh(H)           0.107839236038     3.129887144902     1.564935531735     1.007825032230
      Gh(N)          -0.152160763962     1.236887144902    -2.298064468265    14.003074004430
      Gh(C)          -0.890160763962     1.199887144902     1.532935531735    12.000000000000
      Gh(O)          -1.573160763962     0.468887144902     0.776935531735    15.994914619570
      Gh(O)          -0.236160763962     0.838887144902     2.514934531735    15.994914619570
         P            0.755839236038    -2.194112855098     0.919935531735    30.973761998420
         O            1.299839236038    -3.530112855098     0.714935531735    15.994914619570
         O            0.950839236038    -1.631112855098     2.378935531735    15.994914619570
         H            0.454839236038    -0.691112855098     2.474935531735     1.007825032230
         O            1.477839236038    -1.066112855098    -0.024064468265    15.994914619570
         H            2.458839236038    -1.042112855098     0.190935531735     1.007825032230
         O           -0.739160763962    -2.022112855098     0.464935531735    15.994914619570
         H           -1.101160763962    -1.029112855098     0.723935531735     1.007825032230

  Charge       = 0
  Multiplicity = 1
  Basis Set: AUG-CC-PVTZ
    Blend: AUG-CC-PVTZ
  Basis Set: (AUG-CC-PVTZ AUX)
    Blend: AUG-CC-PVTZ-JKFIT

    Orbital Energies [Eh]
    ---------------------

    Doubly Occupied:

       1A    -80.111123     2A    -20.639913     3A    -20.637663
       4A    -20.606024     5A    -20.509129     6A     -7.629074
       7A     -5.527549     8A     -5.527013     9A     -5.526000
      10A     -1.466512    11A     -1.395645    12A     -1.373863
      13A     -1.299304    14A     -0.841894    15A     -0.769539
      16A     -0.744895    17A     -0.686362    18A     -0.657942
      19A     -0.616219    20A     -0.599431    21A     -0.570728
      22A     -0.560020    23A     -0.541211    24A     -0.476536
      25A     -0.465939

  @DF-RHF Final Energy:  -642.17788964468821

   => Energetics <=

    Nuclear Repulsion Energy =            279.5568487752240117
    One-Electron Energy =               -1443.9104157541366931
    Two-Electron Energy =                 522.1756773342243605
    Total Energy =                       -642.1778896446882072

  Dipole Moment: [D]
     X:    -1.3566      Y:     5.9227      Z:     1.7595     Total:     6.3257

  Basis Set: (AUG-CC-PVTZ AUX)
    Blend: AUG-CC-PVTZ-RI
	 Reference Energy          =    -642.1778896446882072 [Eh]
	 Singles Energy            =      -0.0000000000000000 [Eh]
	 Same-Spin Energy          =      -0.2983437217282031 [Eh]
	 Opposite-Spin Energy      =      -0.8472065867116824 [Eh]
	 Correlation Energy        =      -1.1455503084398855 [Eh]
	 Total Energy              =    -643.3234399531280587 [Eh]

	 ================> DF-SCS-MP2 Energies <==================
	-----------------------------------------------------------
	 SCS Same-Spin Scale       =       0.3333333333333333 [-]
	 SCS Opposite-Spin Scale   =       1.2000000000000000 [-]
	 SCS Same-Spin Energy      =      -0.0994479072427344 [Eh]
	 SCS Opposite-Spin Energy  =      -1.0166479040540188 [Eh]
	 SCS Correlation Energy    =      -1.1160958112967532 [Eh]
	 SCS Total Energy          =    -643.2939854559849664 [Eh]
	-----------------------------------------------------------

    SAPT Results
  --------------------------------------------------------------------------------------------------------
    Electrostatics               -104.10477967 [mEh]     -65.32673551 [kcal/mol]    -273.32706137 [kJ/mol]
      Elst10,r                   -108.12321796 [mEh]     -67.84834361 [kcal/mol]    -283.87746965 [kJ/mol]
      Elst12,r                      3.77634525 [mEh]       2.36969242 [kcal/mol]       9.91479309 [kJ/mol]
      Elst13,r                      0.24209304 [mEh]       0.15191568 [kcal/mol]       0.63561519 [kJ/mol]

    Exchange                      101.18051971 [mEh]      63.49173468 [kcal/mol]     265.64941789 [kJ/mol]
      Exch10                       88.02891010 [mEh]      55.23897505 [kcal/mol]     231.11987162 [kJ/mol]
      Exch10(S^2)                  86.47267053 [mEh]      54.26241998 [kcal/mol]     227.03396519 [kJ/mol]
      Exch11(S^2)                   1.16125723 [mEh]       0.72869991 [kcal/mol]       3.04888043 [kJ/mol]
      Exch12(S^2)                  11.99035238 [mEh]       7.52405971 [kcal/mol]      31.48066584 [kJ/mol]

    Induction                     -55.50113813 [mEh]     -34.82748998 [kcal/mol]    -145.71821807 [kJ/mol]
      Ind20,r                     -57.09198825 [mEh]     -35.82576350 [kcal/mol]    -149.89499450 [kJ/mol]
      Ind22                        -8.22507246 [mEh]      -5.16131089 [kcal/mol]     -21.59492478 [kJ/mol]
      Exch-Ind20,r                 26.42378526 [mEh]      16.58117559 [kcal/mol]      69.37563865 [kJ/mol]
      Exch-Ind22                    3.80679593 [mEh]       2.38880051 [kcal/mol]       9.99474134 [kJ/mol]
      delta HF,r (2)              -22.61563667 [mEh]     -14.19152626 [kcal/mol]     -59.37734589 [kJ/mol]
      delta MP2,r (2)               2.20097806 [mEh]       1.38113459 [kcal/mol]       5.77866711 [kJ/mol]

    Dispersion                    -30.96588372 [mEh]     -19.43138540 [kcal/mol]     -81.30091650 [kJ/mol]
      Disp20                      -34.10818256 [mEh]     -21.40320769 [kcal/mol]     -89.55102097 [kJ/mol]
      Disp30                        1.17897472 [mEh]       0.73981781 [kcal/mol]       3.09539770 [kJ/mol]
      Disp21                        3.58633336 [mEh]       2.25045816 [kcal/mol]       9.41591693 [kJ/mol]
      Disp22 (SDQ)                 -1.32347176 [mEh]      -0.83049107 [kcal/mol]      -3.47477464 [kJ/mol]
      Disp22 (T)                   -6.12692355 [mEh]      -3.84470257 [kcal/mol]     -16.08623555 [kJ/mol]
      Est. Disp22 (T)              -6.85452918 [mEh]      -4.30128200 [kcal/mol]     -17.99656389 [kJ/mol]
      Exch-Disp20                   6.55499171 [mEh]       4.11331940 [kcal/mol]      17.21012837 [kJ/mol]

  Total HF                        -73.37814752 [mEh]     -46.04548274 [kcal/mol]    -192.65429978 [kJ/mol]
  Total SAPT0                    -100.93133837 [mEh]     -63.33537103 [kcal/mol]    -264.99519237 [kJ/mol]
  Total SAPT2                     -88.42166004 [mEh]     -55.48542936 [kcal/mol]    -232.15103646 [kJ/mol]
  Total SAPT2+                    -93.01332763 [mEh]     -58.36674428 [kcal/mol]    -244.20645806 [kJ/mol]
  Total SAPT2+(3)                 -91.59225987 [mEh]     -57.47501079 [kcal/mol]    -240.47544516 [kJ/mol]
  Total SAPT2+dMP2                -90.81234957 [mEh]     -56.98560969 [kcal/mol]    -238.42779095 [kJ/mol]
  Total SAPT2+(3)dMP2             -89.39128181 [mEh]     -56.09387621 [kcal/mol]    -234.69677806 [kJ/mol]

  Special recipe for scaled SAPT0 (see Manual):
    Electrostatics sSAPT0        -108.12321796 [mEh]     -67.84834361 [kcal/mol]    -283.87746965 [kJ/mol]
    Exchange sSAPT0                88.02891010 [mEh]      55.23897505 [kcal/mol]     231.11987162 [kJ/mol]
    Induction sSAPT0              -51.83137231 [mEh]     -32.52467716 [kcal/mol]    -136.08324924 [kJ/mol]
    Dispersion sSAPT0             -27.19287489 [mEh]     -17.06378661 [kcal/mol]     -71.39488319 [kJ/mol]
  Total sSAPT0                    -99.11855506 [mEh]     -62.19783233 [kcal/mol]    -260.23573047 [kJ/mol]
  --------------------------------------------------------------------------------------------------------

*** Psi4 exiting successfully. Buy a developer a beer!
