 Gaussian 16, Revision A.03,
 Gaussian 16:  ES64L-G16RevA.03 25-Dec-2016

 ------------------------------------
 #p 6-311+g(2d,p) nosymm em=gd3 m062x
 ------------------------------------

 -------------------
 Title Card Required
 -------------------
 Symbolic Z-matrix:
 Charge =  0 Multiplicity = 1

                          Input orientation:
 ---------------------------------------------------------------------
 Center     Atomic      Atomic             Coordinates (Angstroms)
 Number     Number       Type             X           Y           Z
 ---------------------------------------------------------------------
      1          6           0       13.808423    5.543051    8.395590
      2          6           0       14.751938    5.596212    7.378449
      3          6           0       14.799375    6.708136    6.532431
      4          6           0       13.830507    7.698546    6.654939
      5          6           0       12.839499    7.573151    7.647490
      6          1           0       15.606224    6.805293    5.804262
      7          1           0       13.801143    4.725584    9.130792
      8          1           0       15.499966    4.804646    7.296745
      9          1           0       12.021307    8.309011    7.718148
     10          6           0       13.841413    8.933528    5.833897
     11          1           0       14.621265    8.936711    5.062859
     12          1           0       12.882031    9.131521    5.339790
     13          1           0       14.044245    9.807324    6.499550
     14          7           0       12.876263    6.541434    8.527901
     15          6           0       11.944940    6.465392    9.680225
     16          1           0       11.079830    5.833932    9.374675
     17          1           0       12.474618    5.931438   10.515968
     18          6           0       11.443602    7.818771   10.219052
     19          1           0       11.100575    8.485008    9.400738
     20          1           0       10.517792    7.617232   10.804633
     21          6           0       12.451511    8.519699   11.118406
     22          1           0       13.166169    7.803864   11.567857
     23          1           0       11.942338    8.987721   11.980743
     24         16           0       13.399325    9.835729   10.290369
     25          8           0       14.560946   10.052924   11.182197
     26          8           0       12.457796   10.932593   10.104022
     27          8           0       13.835306    9.213058    8.979297
 ---------------------------------------------------------------------

 SCF Done:  E(RM062X) =  -1029.25621106     A.U. after   15 cycles

 Alpha  occ. eigenvalues --  -90.04070 -19.55244 -19.54999 -19.54009 -14.89405
 Alpha  occ. eigenvalues --  -10.65876 -10.65507 -10.63738 -10.61169 -10.60949
 Alpha  occ. eigenvalues --  -10.60854 -10.57503 -10.55879 -10.54613  -8.37482
 Alpha  occ. eigenvalues --   -6.29762  -6.29741  -6.29695  -1.18141  -1.16754
 Alpha  occ. eigenvalues --   -1.04902  -1.03521  -0.99034  -0.94002  -0.91677
 Alpha  occ. eigenvalues --   -0.84866  -0.83027  -0.77932  -0.74901  -0.71676
 Alpha  occ. eigenvalues --   -0.65829  -0.63834  -0.62539  -0.60371  -0.59246
 Alpha  occ. eigenvalues --   -0.57915  -0.54884  -0.54400  -0.52712  -0.51184
 Alpha  occ. eigenvalues --   -0.49880  -0.49526  -0.48571  -0.47847  -0.47417
 Alpha  occ. eigenvalues --   -0.46182  -0.45613  -0.44074  -0.42978  -0.39990
 Alpha  occ. eigenvalues --   -0.36964  -0.36038  -0.35771  -0.32280  -0.31341
 Alpha  occ. eigenvalues --   -0.30539  -0.28040
 Alpha virt. eigenvalues --   -0.07201  -0.04065  -0.01829  -0.00287  -0.00001
 Alpha virt. eigenvalues --    0.01449   0.02035   0.02471   0.03707   0.04029
 Alpha virt. eigenvalues --    0.04715   0.05093   0.05803   0.06484   0.07055

 Mulliken charges:
               1
     1  C   -0.069477
     2  C   -0.113230
     3  C   -0.378882
     4  C    0.701636
     5  C   -0.501971
     6  H    0.155527
     7  H    0.158020
     8  H    0.152409
     9  H    0.184977
    10  C   -0.798771
    11  H    0.160549
    12  H    0.183267
    13  H    0.249573
    14  N    0.553190
    15  C   -0.449029
    16  H    0.194208
    17  H    0.178456
    18  C   -0.123855
    19  H    0.176398
    20  H    0.172195
    21  C   -0.491974
    22  H    0.182267
    23  H    0.192781
    24  S    1.003679
    25  O   -0.512772
    26  O   -0.555645
    27  O   -0.603528
 Sum of Mulliken charges =  -0.00000

 Dipole moment (field-independent basis, Debye):
    X=             -2.5861    Y=            -12.1806    Z=             -6.2684  Tot=             13.9409
 Quadrupole moment (field-independent basis, Debye-Ang):
   XX=           -155.7325   YY=           -295.7427   ZZ=           -197.3092
   XY=           -187.5801   XZ=           -119.1754   YZ=           -172.9590

 Normal termination of Gaussian 16 at Mon Jul 10 19:08:20 2023.
