 Gaussian 16, Revision A.03,
 Gaussian 16:  ES64L-G16RevA.03 25-Dec-2016

 ------------------------------------
 #p 6-311+g(2d,p) nosymm em=gd3 m062x
 ------------------------------------

 -------------------
 Title Card Required
 -------------------
 Symbolic Z-matrix:
 Charge =  0 Multiplicity = 1

                          Input orientation:
 ---------------------------------------------------------------------
 Center     Atomic      Atomic             Coordinates (Angstroms)
 Number     Number       Type             X           Y           Z
 ---------------------------------------------------------------------
      1         15           0       16.213298    7.136260   10.240330
      2          8           0       15.077040    6.258554   10.558859
      3          8           0       17.542437    6.258674   10.105443
      4          1           0       18.326190    6.913168    9.961972
      5          8           0       16.120896    7.850379    8.827335
      6          1           0       15.238344    8.473423    8.820495
      7          8           0       16.609257    8.231031   11.305814
      8          1           0       15.854218    8.997011   11.308735
 ---------------------------------------------------------------------

 SCF Done:  E(RM062X) =  -644.134419679     A.U. after   13 cycles

 Alpha  occ. eigenvalues --  -78.16770 -19.69729 -19.69150 -19.67740 -19.58053
 Alpha  occ. eigenvalues --   -6.97560  -5.09476  -5.09457  -5.09222  -1.24472
 Alpha  occ. eigenvalues --   -1.17324  -1.16384  -1.08250  -0.72568  -0.65480
 Alpha  occ. eigenvalues --   -0.63514  -0.58841  -0.52766  -0.52283  -0.49940
 Alpha  occ. eigenvalues --   -0.46422  -0.45239  -0.44615  -0.37894  -0.36889
 Alpha virt. eigenvalues --   -0.03885   0.01047   0.02479   0.04644   0.07885
 Alpha virt. eigenvalues --    0.09342   0.10689   0.12169   0.15723   0.17000
 Alpha virt. eigenvalues --    0.17772   0.18476   0.19654   0.20139   0.21535

 Mulliken charges:
               1
     1  P    1.281431
     2  O   -0.621274
     3  O   -0.486608
     4  H    0.300722
     5  O   -0.564936
     6  H    0.320979
     7  O   -0.548716
     8  H    0.318403
 Sum of Mulliken charges =  -0.00000

 Dipole moment (field-independent basis, Debye):
    X=              0.9525    Y=              5.3733    Z=             -0.8358  Tot=              5.5207
 Quadrupole moment (field-independent basis, Debye-Ang):
   XX=             -1.7565   YY=             43.7921   ZZ=            -54.3023
   XY=             87.8019   XZ=             -2.8184   YZ=             49.6164

 Normal termination of Gaussian 16 at Mon Jul 10 19:06:11 2023.
