 Gaussian 16, Revision A.03,
 Gaussian 16:  ES64L-G16RevA.03 25-Dec-2016

 -------------------------------------------------------
 #p B3LYP/6-311+G(2d,p) opt freq scrf(smd,solvent=water)
 -------------------------------------------------------

 -------------------
 Title Card Required
 -------------------
 Symbolic Z-matrix:
 Charge =  0 Multiplicity = 1

 SCF Done:  E(RB3LYP) =  -1673.94249066     A.U. after   14 cycles
 SCF Done:  E(RB3LYP) =  -1673.97150549     A.U. after   13 cycles
 SCF Done:  E(RB3LYP) =  -1673.98163693     A.U. after   11 cycles
 SCF Done:  E(RB3LYP) =  -1673.98635611     A.U. after   12 cycles
 SCF Done:  E(RB3LYP) =  -1673.98699991     A.U. after   13 cycles
 SCF Done:  E(RB3LYP) =  -1673.98790216     A.U. after   12 cycles
 SCF Done:  E(RB3LYP) =  -1673.99127394     A.U. after   13 cycles
 SCF Done:  E(RB3LYP) =  -1673.99331236     A.U. after   12 cycles
 SCF Done:  E(RB3LYP) =  -1673.99475665     A.U. after   11 cycles
 SCF Done:  E(RB3LYP) =  -1673.99517352     A.U. after   11 cycles
 SCF Done:  E(RB3LYP) =  -1673.99635234     A.U. after    9 cycles
 SCF Done:  E(RB3LYP) =  -1673.99635383     A.U. after    8 cycles
 SCF Done:  E(RB3LYP) =  -1673.99635486     A.U. after    7 cycles
 SCF Done:  E(RB3LYP) =  -1673.99635532     A.U. after    8 cycles
 SCF Done:  E(RB3LYP) =  -1673.99635541     A.U. after    7 cycles
 SCF Done:  E(RB3LYP) =  -1673.99635535     A.U. after    7 cycles
 SCF Done:  E(RB3LYP) =  -1673.99635526     A.U. after    7 cycles
 SCF Done:  E(RB3LYP) =  -1673.99635514     A.U. after    7 cycles
 SCF Done:  E(RB3LYP) =  -1673.99635528     A.U. after    7 cycles
 Optimization completed.
    -- Stationary point found.
 Normal termination of Gaussian 16 at Sun Dec 11 23:35:41 2022.

 ----------------------------------------------------------------------
 #P Geom=AllCheck Guess=TCheck SCRF=Check GenChk RB3LYP/6-311+G(2d,p) F
 req
 ----------------------------------------------------------------------

 Structure from the checkpoint file:  "/data0/home/software/g16/scratch/Gau-1580552.chk"
 -------------------
 Title Card Required
 -------------------
 Charge =  0 Multiplicity = 1

                         Standard orientation:
 ---------------------------------------------------------------------
 Center     Atomic      Atomic             Coordinates (Angstroms)
 Number     Number       Type             X           Y           Z
 ---------------------------------------------------------------------
      1          6           0       -1.473853   -1.093646    1.584910
      2          6           0       -1.072061   -2.297659    1.043499
      3          6           0       -1.649686   -2.740669   -0.135230
      4          6           0       -2.631150   -1.974944   -0.772584
      5          6           0       -2.986849   -0.777843   -0.181276
      6          1           0       -1.342933   -3.685668   -0.567285
      7          1           0       -1.070189   -0.694835    2.503174
      8          1           0       -0.310766   -2.873062    1.550378
      9          1           0       -3.737000   -0.125258   -0.605670
     10          6           0       -3.281673   -2.423317   -2.047475
     11          1           0       -3.787389   -3.380620   -1.901390
     12          1           0       -4.012310   -1.694451   -2.397039
     13          1           0       -2.530869   -2.565580   -2.828098
     14          7           0       -2.420859   -0.360626    0.972029
     15          6           0       -2.833175    0.954918    1.534840
     16          1           0       -3.920354    0.984023    1.492517
     17          1           0       -2.527105    0.962017    2.578330
     18          6           0       -2.258517    2.151754    0.780096
     19          1           0       -2.537988    2.087492   -0.273010
     20          1           0       -2.776766    3.026443    1.175679
     21          6           0       -0.744793    2.364640    0.945005
     22          1           0       -0.289055    1.666602    1.647696
     23          1           0       -0.520090    3.374346    1.287691
     24         16           0        0.198117    2.190004   -0.579143
     25          8           0        1.619449    2.423819   -0.190525
     26          8           0       -0.301546    3.193287   -1.529639
     27          8           0       -0.012320    0.795439   -1.066330
     28         15           0        2.895107   -0.958937    0.204354
     29          8           0        2.494384   -1.420716    1.554843
     30          8           0        4.112562   -1.839252   -0.315260
     31          1           0        4.436174   -1.586675   -1.194722
     32          8           0        1.791113   -1.114951   -0.918759
     33          1           0        1.103473   -0.383382   -0.946628
     34          8           0        3.426908    0.530527    0.133415
     35          1           0        2.718856    1.232358    0.022474
 ---------------------------------------------------------------------

 SCF Done:  E(RB3LYP) =  -1673.99635528     A.U. after    1 cycles

 The electronic state is 1-A.
 Alpha  occ. eigenvalues --  -89.05377 -77.19140 -19.16314 -19.14722 -19.14687
 Alpha  occ. eigenvalues --  -19.11724 -19.11701 -19.11082 -19.09384 -14.42676
 Alpha  occ. eigenvalues --  -10.24682 -10.24382 -10.22619 -10.21594 -10.21137
 Alpha  occ. eigenvalues --  -10.20414 -10.19989 -10.18781 -10.17035  -8.11012
 Alpha  occ. eigenvalues --   -6.66915  -6.07362  -6.07306  -6.07157  -4.83224
 Alpha  occ. eigenvalues --   -4.83202  -4.82944  -1.13170  -1.10413  -1.03893
 Alpha  occ. eigenvalues --   -1.03522  -1.02821  -0.99688  -0.99497  -0.97648
 Alpha  occ. eigenvalues --   -0.86430  -0.81918  -0.80880  -0.74578  -0.72882
 Alpha  occ. eigenvalues --   -0.67633  -0.65553  -0.64638  -0.62766  -0.58945
 Alpha  occ. eigenvalues --   -0.58032  -0.55874  -0.55093  -0.53684  -0.51072
 Alpha  occ. eigenvalues --   -0.50380  -0.49128  -0.48534  -0.47776  -0.47500
 Alpha  occ. eigenvalues --   -0.47274  -0.45302  -0.44577  -0.44277  -0.43385
 Alpha  occ. eigenvalues --   -0.42056  -0.41627  -0.40899  -0.40267  -0.39902
 Alpha  occ. eigenvalues --   -0.38683  -0.38121  -0.37554  -0.37344  -0.37212
 Alpha  occ. eigenvalues --   -0.36916  -0.36341  -0.35912  -0.35756  -0.32186
 Alpha  occ. eigenvalues --   -0.32090  -0.31541  -0.31269  -0.30963  -0.30284
 Alpha  occ. eigenvalues --   -0.28950  -0.28482
 Alpha virt. eigenvalues --   -0.08057  -0.04196  -0.00587   0.01003   0.01783
 Alpha virt. eigenvalues --    0.02017   0.02815   0.03515   0.03785   0.03979
 Alpha virt. eigenvalues --    0.04351   0.05337   0.05756   0.05906   0.06353

 Mulliken charges:
               1
     1  C   -0.030861
     2  C   -0.220664
     3  C   -0.205443
     4  C    0.548141
     5  C   -0.414829
     6  H    0.160525
     7  H    0.197963
     8  H    0.176115
     9  H    0.185220
    10  C   -0.561849
    11  H    0.172108
    12  H    0.151562
    13  H    0.171173
    14  N    0.441087
    15  C   -0.375309
    16  H    0.189798
    17  H    0.186778
    18  C   -0.088526
    19  H    0.158713
    20  H    0.156828
    21  C   -0.334497
    22  H    0.195673
    23  H    0.196115
    24  S    1.146599
    25  O   -0.762641
    26  O   -0.648498
    27  O   -0.770004
    28  P    1.522546
    29  O   -0.826759
    30  O   -0.581748
    31  H    0.350798
    32  O   -0.716091
    33  H    0.472397
    34  O   -0.722998
    35  H    0.480579
 Sum of Mulliken charges =  -0.00000

 Dipole moment (field-independent basis, Debye):
    X=            -18.4673    Y=             -6.5617    Z=              3.8226  Tot=             19.9677
 Quadrupole moment (field-independent basis, Debye-Ang):
   XX=           -107.9157   YY=           -136.7466   ZZ=           -124.5084
   XY=              4.7477   XZ=            -21.0704   YZ=             27.4232

  Exact polarizability: 238.105 -22.666 261.249  21.785  16.124 248.100
 Approx polarizability: 246.171 -25.129 270.009  26.990  16.257 261.057

                      1                      2                      3
                      A                      A                      A
 Frequencies --     25.4837                26.9479                31.4522
 Red. masses --      5.8513                 7.3147                 5.5081
 Frc consts  --      0.0022                 0.0031                 0.0032
 IR Inten    --      3.8216                18.7439                12.9107

                      4                      5                      6
                      A                      A                      A
 Frequencies --     38.9675                54.9043                58.5950
 Red. masses --     10.4093                 5.1613                10.4987
 Frc consts  --      0.0093                 0.0092                 0.0212
 IR Inten    --     10.5359                 5.2488                 6.4369

                      7                      8                      9
                      A                      A                      A
 Frequencies --     87.3254                93.6618               113.1277
 Red. masses --      1.3203                 2.3851                 6.4616
 Frc consts  --      0.0059                 0.0123                 0.0487
 IR Inten    --      0.2715                 1.3812                 2.0316

                     10                     11                     12
                      A                      A                      A
 Frequencies --    117.4615               151.1697               154.7155
 Red. masses --      4.5377                 7.8026                 8.8716
 Frc consts  --      0.0369                 0.1051                 0.1251
 IR Inten    --      1.0229                 1.2315                76.3074

                     13                     14                     15
                      A                      A                      A
 Frequencies --    202.8818               217.2583               221.2742
 Red. masses --      5.5636                 3.0337                 3.1249
 Frc consts  --      0.1349                 0.0844                 0.0901
 IR Inten    --      5.4536                 3.3655                 4.1991

                     16                     17                     18
                      A                      A                      A
 Frequencies --    288.6328               307.1797               318.2504
 Red. masses --      1.8433                 2.5830                 3.0807
 Frc consts  --      0.0905                 0.1436                 0.1838
 IR Inten    --    159.1552                 2.0157                10.0947

                     19                     20                     21
                      A                      A                      A
 Frequencies --    345.9021               360.8486               372.0946
 Red. masses --      5.2663                 6.7385                 2.1167
 Frc consts  --      0.3712                 0.5170                 0.1727
 IR Inten    --     16.3447                58.7673                76.8068

                     22                     23                     24
                      A                      A                      A
 Frequencies --    404.6791               437.7890               438.4686
 Red. masses --      2.8314                 3.7345                 3.2816
 Frc consts  --      0.2732                 0.4217                 0.3717
 IR Inten    --      4.9187                25.1503                49.3757

                     25                     26                     27
                      A                      A                      A
 Frequencies --    444.3775               454.2369               476.9684
 Red. masses --      2.7946                11.8311                 7.7953
 Frc consts  --      0.3251                 1.4383                 1.0449
 IR Inten    --     10.2714                43.9132                 2.6997

                     28                     29                     30
                      A                      A                      A
 Frequencies --    500.1168               503.3695               512.8986
 Red. masses --      5.5729                 9.5476                 4.5344
 Frc consts  --      0.8212                 1.4253                 0.7028
 IR Inten    --     53.8518               120.2572                 7.7595

                     31                     32                     33
                      A                      A                      A
 Frequencies --    545.0629               549.5754               587.1204
 Red. masses --      4.7422                 4.8162                 4.3802
 Frc consts  --      0.8301                 0.8571                 0.8896
 IR Inten    --      5.5420                38.3900                37.7864

                     34                     35                     36
                      A                      A                      A
 Frequencies --    691.6222               703.2508               708.3904
 Red. masses --      2.2291                 1.0632                 3.5704
 Frc consts  --      0.6282                 0.3098                 1.0556
 IR Inten    --     28.6483               105.6158                62.3513

                     37                     38                     39
                      A                      A                      A
 Frequencies --    739.0233               741.6681               814.7100
 Red. masses --      1.0750                 4.8800                 1.4185
 Frc consts  --      0.3459                 1.5816                 0.5547
 IR Inten    --    307.6901                29.3528                32.7779

                     40                     41                     42
                      A                      A                      A
 Frequencies --    831.8208               836.1130               883.9386
 Red. masses --      2.0794                11.2256                 2.1007
 Frc consts  --      0.8477                 4.6237                 0.9671
 IR Inten    --     24.3172                91.0172                 4.9130

                     43                     44                     45
                      A                      A                      A
 Frequencies --    908.6054               916.0312               921.0232
 Red. masses --     12.5200                 1.4183                14.1336
 Frc consts  --      6.0898                 0.7012                 7.0639
 IR Inten    --    570.9897                 9.6784               296.6377

                     46                     47                     48
                      A                      A                      A
 Frequencies --    928.6104               967.2009               982.1282
 Red. masses --      2.8129                 1.4359                 3.6509
 Frc consts  --      1.4291                 0.7914                 2.0748
 IR Inten    --     19.2819                14.5157               225.2076

                     49                     50                     51
                      A                      A                      A
 Frequencies --    992.7285              1022.2175              1032.6948
 Red. masses --      3.2190                 1.3665                 1.5713
 Frc consts  --      1.8691                 0.8413                 0.9873
 IR Inten    --    131.3059                 1.2583                 5.5919

                     52                     53                     54
                      A                      A                      A
 Frequencies --   1055.3381              1057.2496              1058.0068
 Red. masses --      4.7312                 5.2013                 1.2487
 Frc consts  --      3.1046                 3.4254                 0.8235
 IR Inten    --    326.0684               246.5565               156.1618

                     55                     56                     57
                      A                      A                      A
 Frequencies --   1065.1924              1072.6399              1074.0691
 Red. masses --      2.9258                 1.5696                 2.7147
 Frc consts  --      1.9560                 1.0640                 1.8451
 IR Inten    --    204.2083                12.8053                38.3799

                     58                     59                     60
                      A                      A                      A
 Frequencies --   1133.1600              1141.0121              1171.3180
 Red. masses --      2.6704                 2.8734                 1.7428
 Frc consts  --      2.0203                 2.2041                 1.4088
 IR Inten    --    288.7169               504.1603                19.7503

                     61                     62                     63
                      A                      A                      A
 Frequencies --   1211.4398              1214.1749              1214.8966
 Red. masses --      4.4639                 1.1787                 1.3201
 Frc consts  --      3.8598                 1.0238                 1.1480
 IR Inten    --    530.4689               250.4909                41.6949

                     64                     65                     66
                      A                      A                      A
 Frequencies --   1216.5041              1223.6235              1270.1847
 Red. masses --      1.2741                 1.2346                 2.9451
 Frc consts  --      1.1109                 1.0891                 2.7996
 IR Inten    --     30.4330                71.1322                28.4491

                     67                     68                     69
                      A                      A                      A
 Frequencies --   1285.1049              1307.6225              1327.4015
 Red. masses --      1.4139                 1.1417                 1.2799
 Frc consts  --      1.3758                 1.1502                 1.3287
 IR Inten    --      5.3054                13.7809                 5.9185

                     70                     71                     72
                      A                      A                      A
 Frequencies --   1352.4565              1374.7237              1392.1492
 Red. masses --      2.2613                 1.2909                 1.4047
 Frc consts  --      2.4370                 1.4374                 1.6040
 IR Inten    --     29.5005                 2.6539                 5.0728

                     73                     74                     75
                      A                      A                      A
 Frequencies --   1397.1649              1414.0020              1462.1089
 Red. masses --      1.2540                 1.2314                 1.2276
 Frc consts  --      1.4423                 1.4506                 1.5462
 IR Inten    --      8.0523                 3.5181                 7.1791

                     76                     77                     78
                      A                      A                      A
 Frequencies --   1464.3277              1465.6659              1472.1515
 Red. masses --      1.0410                 1.0925                 1.0924
 Frc consts  --      1.3151                 1.3828                 1.3949
 IR Inten    --     15.0580                11.7206                32.6471

                     79                     80                     81
                      A                      A                      A
 Frequencies --   1491.1684              1519.1005              1536.2520
 Red. masses --      1.1983                 1.4900                 2.4525
 Frc consts  --      1.5700                 2.0259                 3.4102
 IR Inten    --     15.4579                41.6615                85.6621

                     82                     83                     84
                      A                      A                      A
 Frequencies --   1624.9326              1667.4111              3015.5657
 Red. masses --      5.3289                 4.6914                 1.0790
 Frc consts  --      8.2901                 7.6849                 5.7810
 IR Inten    --      7.5625                39.9492               166.2688

                     85                     86                     87
                      A                      A                      A
 Frequencies --   3041.7304              3062.9205              3065.7345
 Red. masses --      1.0369                 1.0637                 1.0738
 Frc consts  --      5.6523                 5.8797                 5.9462
 IR Inten    --     11.8219               808.0885              4267.2867

                     88                     89                     90
                      A                      A                      A
 Frequencies --   3081.0520              3094.4860              3095.8185
 Red. masses --      1.0616                 1.1011                 1.0865
 Frc consts  --      5.9377                 6.2125                 6.1351
 IR Inten    --      3.6293                 9.2737                 1.5768

                     91                     92                     93
                      A                      A                      A
 Frequencies --   3106.8155              3126.3589              3132.4524
 Red. masses --      1.0727                 1.1024                 1.1061
 Frc consts  --      6.1001                 6.3484                 6.3945
 IR Inten    --     17.0947                16.6265                 1.0371

                     94                     95                     96
                      A                      A                      A
 Frequencies --   3157.6283              3192.1194              3221.1587
 Red. masses --      1.1092                 1.0919                 1.0944
 Frc consts  --      6.5162                 6.5554                 6.6907
 IR Inten    --      4.5621                 1.6808                 4.8833

                     97                     98                     99
                      A                      A                      A
 Frequencies --   3224.3045              3248.5807              3756.2930
 Red. masses --      1.0935                 1.0965                 1.0655
 Frc consts  --      6.6980                 6.8177                 8.8574
 IR Inten    --      0.5194                 5.6167               239.5585

 - Thermochemistry -
 -------------------
 Temperature   298.150 Kelvin.  Pressure   1.00000 Atm.
 Atom     1 has atomic number  6 and mass  12.00000

 Molecular mass:   313.03851 amu.
 Principal axes and moments of inertia in atomic units:
                           1         2         3
     Eigenvalues --  4971.425357125.127179768.66795
           X            0.99987   0.01590   0.00088
           Y           -0.01592   0.99906   0.04044
           Z           -0.00024  -0.04045   0.99918
 This molecule is an asymmetric top.
 Rotational symmetry number  1.
 Warning -- assumption of classical behavior for rotation
           may cause significant error
 Rotational temperatures (Kelvin)      0.01742     0.01216     0.00887
 Rotational constants (GHZ):           0.36302     0.25329     0.18475
 Zero-point vibrational energy     702328.4 (Joules/Mol)
                                  167.86053 (Kcal/Mol)
 Warning -- explicit consideration of  33 degrees of freedom as
           vibrations may cause significant error
 Vibrational temperatures:     36.67    38.77    45.25    56.07    78.99
          (Kelvin)             84.31   125.64   134.76   162.77   169.00
                              217.50   222.60   291.90   312.59   318.36
                              415.28   441.96   457.89   497.68   519.18
                              535.36   582.24   629.88   630.86   639.36
                              653.55   686.25   719.56   724.24   737.95
                              784.22   790.72   844.74   995.09  1011.82
                             1019.22  1063.29  1067.09  1172.19  1196.80
                             1202.98  1271.79  1307.28  1317.96  1325.15
                             1336.06  1391.59  1413.06  1428.31  1470.74
                             1485.82  1518.40  1521.15  1522.24  1532.57
                             1543.29  1545.35  1630.36  1641.66  1685.27
                             1742.99  1746.93  1747.97  1750.28  1760.52
                             1827.51  1848.98  1881.38  1909.83  1945.88
                             1977.92  2002.99  2010.21  2034.43  2103.65
                             2106.84  2108.77  2118.10  2145.46  2185.65
                             2210.32  2337.92  2399.03  4338.73  4376.37
                             4406.86  4410.91  4432.95  4452.28  4454.19
                             4470.01  4498.13  4506.90  4543.12  4592.75
                             4634.53  4639.06  4673.98  5404.47

 Zero-point correction=                           0.267503 (Hartree/Particle)
 Thermal correction to Energy=                    0.288052
 Thermal correction to Enthalpy=                  0.288996
 Thermal correction to Gibbs Free Energy=         0.215411
 Sum of electronic and zero-point Energies=          -1673.728852
 Sum of electronic and thermal Energies=             -1673.708303
 Sum of electronic and thermal Enthalpies=           -1673.707359
 Sum of electronic and thermal Free Energies=        -1673.780944

                     E (Thermal)             CV                S
                      KCal/Mol        Cal/Mol-Kelvin    Cal/Mol-Kelvin
 Total                  180.755             75.366            154.873
 Electronic               0.000              0.000              0.000
 Translational            0.889              2.981             43.120
 Rotational               0.889              2.981             34.203
 Vibrational            178.978             69.404             77.551
 Vibration     1          0.593              1.985              6.153
 Vibration     2          0.593              1.984              6.042
 Vibration     3          0.594              1.983              5.736
 Vibration     4          0.594              1.981              5.311
 Vibration     5          0.596              1.976              4.632
 Vibration     6          0.596              1.974              4.504
 Vibration     7          0.601              1.958              3.719
 Vibration     8          0.603              1.954              3.582
 Vibration     9          0.607              1.939              3.215
 Vibration    10          0.608              1.935              3.142
 Vibration    11          0.619              1.901              2.657
 Vibration    12          0.620              1.897              2.613
 Vibration    13          0.639              1.836              2.107
 Vibration    14          0.646              1.815              1.982
 Vibration    15          0.648              1.809              1.949
 Vibration    16          0.685              1.695              1.482
 Vibration    17          0.697              1.660              1.377
 Vibration    18          0.705              1.639              1.319
 Vibration    19          0.724              1.584              1.185
 Vibration    20          0.735              1.553              1.118
 Vibration    21          0.744              1.529              1.071
 Vibration    22          0.770              1.460              0.946
 Vibration    23          0.798              1.388              0.834
 Vibration    24          0.799              1.386              0.831
 Vibration    25          0.804              1.373              0.813
 Vibration    26          0.813              1.352              0.783
 Vibration    27          0.834              1.301              0.718
 Vibration    28          0.856              1.250              0.658
 Vibration    29          0.859              1.243              0.650
 Vibration    30          0.868              1.221              0.627
 Vibration    31          0.900              1.150              0.554
 Vibration    32          0.905              1.141              0.545
 Vibration    33          0.944              1.059              0.472

                           ! Non-Optimized Parameters !
 Normal termination of Gaussian 16 at Mon Dec 12 00:12:11 2022.
