 Gaussian 16, Revision A.03,
 Gaussian 16:  ES64L-G16RevA.03 25-Dec-2016

 ----------------------------------------
 #p M052X/6-31G* scrf=(smd,solvent=water)
 ----------------------------------------

 -------------------
 Title Card Required
 -------------------
 Symbolic Z-matrix:
 Charge =  0 Multiplicity = 1

                         Standard orientation:
 ---------------------------------------------------------------------
 Center     Atomic      Atomic             Coordinates (Angstroms)
 Number     Number       Type             X           Y           Z
 ---------------------------------------------------------------------
      1          6           0       -1.404706    0.667745   -0.233382
      2          6           0       -2.755316    0.835349    0.005980
      3          6           0       -3.535954   -0.317167    0.124071
      4          6           0       -2.957112   -1.570950    0.003458
      5          6           0       -1.602918   -1.670964   -0.235764
      6          1           0       -4.598956   -0.226347    0.310432
      7          1           0       -0.725125    1.501028   -0.337483
      8          1           0       -3.544281   -2.473689    0.091596
      9          1           0       -1.085130   -2.612550   -0.340002
     10          6           0       -3.345896    2.206912    0.128121
     11          1           0       -3.827883    2.327950    1.100545
     12          1           0       -2.582888    2.976857    0.019049
     13          1           0       -4.109002    2.361059   -0.637913
     14          7           0       -0.858116   -0.558624   -0.356200
     15          6           0        0.608511   -0.675599   -0.541598
     16          1           0        0.788114   -1.589981   -1.103445
     17          1           0        0.919671    0.173725   -1.145231
     18          6           0        1.327914   -0.701523    0.800558
     19          1           0        1.065358    0.193631    1.367298
     20          1           0        0.979894   -1.566901    1.370019
     21          6           0        2.839240   -0.784077    0.614373
     22          1           0        3.310660   -0.922132    1.592752
     23          1           0        3.105750   -1.658693    0.017299
     24          6           0        3.497896    0.452698   -0.008111
     25          8           0        4.597637    0.271701   -0.609259
     26          8           0        2.937448    1.574782    0.139539
 ---------------------------------------------------------------------

 SCF Done:  E(RM052X) =  -594.039718878     A.U. after   13 cycles

 The electronic state is 1-A.
 Alpha  occ. eigenvalues --  -19.61251 -19.60816 -14.92016 -10.65732 -10.65614
 Alpha  occ. eigenvalues --  -10.65370 -10.62262 -10.62240 -10.62042 -10.61130
 Alpha  occ. eigenvalues --  -10.57198 -10.57094 -10.55830  -1.15713  -1.13406
 Alpha  occ. eigenvalues --   -1.03207  -0.97464  -0.92577  -0.90015  -0.83138
 Alpha  occ. eigenvalues --   -0.81766  -0.75573  -0.73470  -0.70321  -0.63562
 Alpha  occ. eigenvalues --   -0.61301  -0.58466  -0.57642  -0.55241  -0.54997
 Alpha  occ. eigenvalues --   -0.53732  -0.52020  -0.50599  -0.49299  -0.48800
 Alpha  occ. eigenvalues --   -0.48491  -0.47399  -0.44952  -0.44853  -0.44245
 Alpha  occ. eigenvalues --   -0.42942  -0.41222  -0.40284  -0.36629  -0.33885
 Alpha  occ. eigenvalues --   -0.31241  -0.30399  -0.29957
 Alpha virt. eigenvalues --   -0.03250   0.00793   0.11392   0.13478   0.15772
 Alpha virt. eigenvalues --    0.16157   0.17406   0.17862   0.19500   0.20810
 Alpha virt. eigenvalues --    0.21796   0.22209   0.23946   0.24241   0.24953

 Mulliken charges:
               1
     1  C    0.081121
     2  C    0.032278
     3  C   -0.112961
     4  C   -0.232811
     5  C    0.105926
     6  H    0.253502
     7  H    0.284353
     8  H    0.261424
     9  H    0.291036
    10  C   -0.568301
    11  H    0.220879
    12  H    0.214380
    13  H    0.221124
    14  N   -0.425938
    15  C   -0.223765
    16  H    0.243208
    17  H    0.240119
    18  C   -0.318286
    19  H    0.189523
    20  H    0.192983
    21  C   -0.423986
    22  H    0.207821
    23  H    0.181202
    24  C    0.549179
    25  O   -0.740947
    26  O   -0.723065
 Sum of Mulliken charges =  -0.00000

 Dipole moment (field-independent basis, Debye):
    X=            -25.1932    Y=             -7.4907    Z=              1.1136  Tot=             26.3068
 Quadrupole moment (field-independent basis, Debye-Ang):
   XX=           -122.9149   YY=            -68.4325   ZZ=            -76.7711
   XY=            -17.0580   XZ=              8.3238   YZ=              0.5364

 Normal termination of Gaussian 16 at Thu Oct 12 12:28:21 2023.
