 Gaussian 16, Revision A.03,
 Gaussian 16:  ES64L-G16RevA.03 25-Dec-2016

 -----------------------------------------------------------------
 #p opt freq b3lyp/6-311+g(2d,p) scrf=(smd,solvent=water) em=gd3bj
 -----------------------------------------------------------------

 -------------------
 Title Card Required
 -------------------
 Symbolic Z-matrix:
 Charge =  0 Multiplicity = 1

 SCF Done:  E(RB3LYP) =  -594.358800934     A.U. after   13 cycles
 SCF Done:  E(RB3LYP) =  -594.358761829     A.U. after   10 cycles
 SCF Done:  E(RB3LYP) =  -594.357759030     A.U. after   11 cycles
 SCF Done:  E(RB3LYP) =  -594.358828240     A.U. after    8 cycles
 SCF Done:  E(RB3LYP) =  -594.358828251     A.U. after    9 cycles
 SCF Done:  E(RB3LYP) =  -594.358829353     A.U. after    9 cycles
 SCF Done:  E(RB3LYP) =  -594.358829354     A.U. after    8 cycles
 SCF Done:  E(RB3LYP) =  -594.358829286     A.U. after    7 cycles
 SCF Done:  E(RB3LYP) =  -594.358829271     A.U. after    7 cycles
 Optimization completed.
    -- Stationary point found.
 Normal termination of Gaussian 16 at Thu Oct 12 09:05:59 2023.

 ----------------------------------------------------------------------
 #P Geom=AllCheck Guess=TCheck SCRF=Check GenChk RB3LYP/6-311+G(2d,p) F
 req
 ----------------------------------------------------------------------

 Structure from the checkpoint file:  "/data0/home/software/g16/scratch/Gau-2586774.chk"
 -------------------
 Title Card Required
 -------------------
 Charge =  0 Multiplicity = 1

                         Standard orientation:
 ---------------------------------------------------------------------
 Center     Atomic      Atomic             Coordinates (Angstroms)
 Number     Number       Type             X           Y           Z
 ---------------------------------------------------------------------
      1          6           0       -1.404706    0.667745   -0.233382
      2          6           0       -2.755316    0.835349    0.005980
      3          6           0       -3.535954   -0.317167    0.124071
      4          6           0       -2.957112   -1.570950    0.003458
      5          6           0       -1.602918   -1.670964   -0.235764
      6          1           0       -4.598956   -0.226347    0.310432
      7          1           0       -0.725125    1.501028   -0.337483
      8          1           0       -3.544281   -2.473689    0.091596
      9          1           0       -1.085130   -2.612550   -0.340002
     10          6           0       -3.345896    2.206912    0.128121
     11          1           0       -3.827883    2.327950    1.100545
     12          1           0       -2.582888    2.976857    0.019049
     13          1           0       -4.109002    2.361059   -0.637913
     14          7           0       -0.858116   -0.558624   -0.356200
     15          6           0        0.608511   -0.675599   -0.541598
     16          1           0        0.788114   -1.589981   -1.103445
     17          1           0        0.919671    0.173725   -1.145231
     18          6           0        1.327914   -0.701523    0.800558
     19          1           0        1.065358    0.193631    1.367298
     20          1           0        0.979894   -1.566901    1.370019
     21          6           0        2.839240   -0.784077    0.614373
     22          1           0        3.310660   -0.922132    1.592752
     23          1           0        3.105750   -1.658693    0.017299
     24          6           0        3.497896    0.452698   -0.008111
     25          8           0        4.597637    0.271701   -0.609259
     26          8           0        2.937448    1.574782    0.139539
 ---------------------------------------------------------------------

 SCF Done:  E(RB3LYP) =  -594.358829271     A.U. after    1 cycles

 The electronic state is 1-A.
 Alpha  occ. eigenvalues --  -19.07408 -19.07267 -14.42569 -10.26378 -10.24608
 Alpha  occ. eigenvalues --  -10.24353 -10.21805 -10.21553 -10.21125 -10.20486
 Alpha  occ. eigenvalues --  -10.17071 -10.17024 -10.16295  -1.03607  -1.03467
 Alpha  occ. eigenvalues --   -0.94465  -0.86393  -0.81800  -0.79664  -0.73287
 Alpha  occ. eigenvalues --   -0.72112  -0.66477  -0.64616  -0.61600  -0.55310
 Alpha  occ. eigenvalues --   -0.53746  -0.51105  -0.50073  -0.47769  -0.47554
 Alpha  occ. eigenvalues --   -0.46649  -0.45089  -0.43783  -0.42759  -0.42505
 Alpha  occ. eigenvalues --   -0.41927  -0.40728  -0.38826  -0.38670  -0.38029
 Alpha  occ. eigenvalues --   -0.36932  -0.35328  -0.34411  -0.31267  -0.28822
 Alpha  occ. eigenvalues --   -0.27000  -0.25699  -0.24857
 Alpha virt. eigenvalues --   -0.07994  -0.04191   0.00693   0.01563   0.02254
 Alpha virt. eigenvalues --    0.02309   0.03599   0.03775   0.03870   0.04772
 Alpha virt. eigenvalues --    0.05476   0.05730   0.06551   0.06771   0.07130

 Mulliken charges:
               1
     1  C   -0.383250
     2  C    0.487823
     3  C   -0.109350
     4  C   -0.076955
     5  C    0.131696
     6  H    0.155187
     7  H    0.184316
     8  H    0.157701
     9  H    0.186512
    10  C   -0.622534
    11  H    0.169132
    12  H    0.151449
    13  H    0.170301
    14  N    0.381004
    15  C   -0.567042
    16  H    0.175906
    17  H    0.181058
    18  C    0.126732
    19  H    0.140030
    20  H    0.133109
    21  C   -0.385108
    22  H    0.151801
    23  H    0.142645
    24  C    0.479340
    25  O   -0.788634
    26  O   -0.772871
 Sum of Mulliken charges =  -0.00000

 Dipole moment (field-independent basis, Debye):
    X=            -25.6623    Y=             -7.8646    Z=              1.3455  Tot=             26.8741
 Quadrupole moment (field-independent basis, Debye-Ang):
   XX=           -129.3541   YY=            -71.9328   ZZ=            -78.6259
   XY=            -18.8169   XZ=              9.4563   YZ=              0.5333

  Exact polarizability: 218.562 -10.153 207.339 -16.442   1.184 133.021
 Approx polarizability: 221.213  -9.990 217.543 -18.088   2.631 139.191

                      1                      2                      3
                      A                      A                      A
 Frequencies --     23.5509                40.7037                55.7521
 Red. masses --      4.7280                 4.6413                 8.8174
 Frc consts  --      0.0015                 0.0045                 0.0161
 IR Inten    --     12.9780                18.0802                 1.9414

                      4                      5                      6
                      A                      A                      A
 Frequencies --     65.3216                88.4029               109.1679
 Red. masses --      1.0699                 3.5187                 4.7802
 Frc consts  --      0.0027                 0.0162                 0.0336
 IR Inten    --      0.1828                 0.4194                25.3784

                      7                      8                      9
                      A                      A                      A
 Frequencies --    214.4241               249.7874               276.2190
 Red. masses --      2.8444                 2.2239                 3.1448
 Frc consts  --      0.0771                 0.0818                 0.1414
 IR Inten    --      2.2845                 4.7607                 2.0838

                     10                     11                     12
                      A                      A                      A
 Frequencies --    290.9339               325.4845               431.4604
 Red. masses --      2.6149                 4.0749                 2.5029
 Frc consts  --      0.1304                 0.2543                 0.2745
 IR Inten    --      0.9369                 2.9205                 1.0279

                     13                     14                     15
                      A                      A                      A
 Frequencies --    439.5071               502.0206               520.4752
 Red. masses --      2.7956                 4.7398                 3.7479
 Frc consts  --      0.3182                 0.7038                 0.5982
 IR Inten    --      7.5854                15.9578                 1.0443

                     16                     17                     18
                      A                      A                      A
 Frequencies --    544.9660               593.1373               631.3829
 Red. masses --      4.7573                 3.3858                 4.7841
 Frc consts  --      0.8324                 0.7018                 1.1237
 IR Inten    --      0.3475                19.8553                 4.4828

                     19                     20                     21
                      A                      A                      A
 Frequencies --    660.3012               700.1670               765.6528
 Red. masses --      2.3532                 2.1517                 4.4273
 Frc consts  --      0.6045                 0.6215                 1.5292
 IR Inten    --      7.9324                57.3357                11.4654

                     22                     23                     24
                      A                      A                      A
 Frequencies --    794.1654               815.5584               878.9719
 Red. masses --      1.5387                 1.5063                 3.8816
 Frc consts  --      0.5718                 0.5903                 1.7669
 IR Inten    --     41.2408                40.4656                26.5071

                     25                     26                     27
                      A                      A                      A
 Frequencies --    894.6006               921.4996               949.7641
 Red. masses --      2.2505                 1.3850                 3.1858
 Frc consts  --      1.0612                 0.6929                 1.6932
 IR Inten    --     12.6221                 2.2974                 7.1384

                     28                     29                     30
                      A                      A                      A
 Frequencies --    968.3627              1021.1514              1024.6623
 Red. masses --      1.3642                 1.3735                 1.8720
 Frc consts  --      0.7537                 0.8438                 1.1580
 IR Inten    --      0.8094                 0.4356                 5.4573

                     31                     32                     33
                      A                      A                      A
 Frequencies --   1032.7033              1062.1623              1071.4698
 Red. masses --      1.5729                 5.0667                 2.7999
 Frc consts  --      0.9883                 3.3679                 1.8939
 IR Inten    --      6.6784                 4.7165                 9.1948

                     34                     35                     36
                      A                      A                      A
 Frequencies --   1074.1473              1091.2894              1135.3787
 Red. masses --      1.5729                 2.3382                 1.6510
 Frc consts  --      1.0692                 1.6406                 1.2539
 IR Inten    --     11.7553                19.0183                10.2142

                     37                     38                     39
                      A                      A                      A
 Frequencies --   1175.8572              1205.7568              1220.1078
 Red. masses --      1.6115                 1.3815                 1.3147
 Frc consts  --      1.3128                 1.1834                 1.1531
 IR Inten    --     24.1150                24.0959                25.8236

                     40                     41                     42
                      A                      A                      A
 Frequencies --   1236.2010              1274.3454              1300.9052
 Red. masses --      1.3804                 3.4393                 1.6438
 Frc consts  --      1.2429                 3.2908                 1.6391
 IR Inten    --      1.9659                20.4304                53.9081

                     43                     44                     45
                      A                      A                      A
 Frequencies --   1328.2833              1351.6642              1359.7629
 Red. masses --      1.8219                 1.5411                 1.6715
 Frc consts  --      1.8939                 1.6589                 1.8209
 IR Inten    --    179.6399                29.1285                21.9993

                     46                     47                     48
                      A                      A                      A
 Frequencies --   1373.8242              1394.3191              1405.1015
 Red. masses --      1.3074                 2.4514                 1.5949
 Frc consts  --      1.4538                 2.8079                 1.8552
 IR Inten    --      6.7538               181.1821                76.6641

                     49                     50                     51
                      A                      A                      A
 Frequencies --   1413.6269              1444.5952              1461.0749
 Red. masses --      1.2374                 1.1446                 1.2240
 Frc consts  --      1.4569                 1.4073                 1.5395
 IR Inten    --      3.8079               104.0025                 3.0457

                     52                     53                     54
                      A                      A                      A
 Frequencies --   1466.0927              1470.7735              1484.3473
 Red. masses --      1.0431                 1.0916                 6.0866
 Frc consts  --      1.3210                 1.3913                 7.9012
 IR Inten    --     14.7226                10.5308              1193.9203

                     55                     56                     57
                      A                      A                      A
 Frequencies --   1497.7618              1515.6958              1539.7668
 Red. masses --      1.2592                 1.5342                 2.3958
 Frc consts  --      1.6643                 2.0766                 3.3466
 IR Inten    --     33.1491                47.3091                83.2662

                     58                     59                     60
                      A                      A                      A
 Frequencies --   1629.1193              1671.2374              3035.1174
 Red. masses --      5.3758                 4.8102                 1.0631
 Frc consts  --      8.4061                 7.9157                 5.7700
 IR Inten    --      7.2807                37.9003                27.3502

                     61                     62                     63
                      A                      A                      A
 Frequencies --   3042.4185              3046.8652              3074.8243
 Red. masses --      1.0363                 1.0604                 1.1008
 Frc consts  --      5.6518                 5.8000                 6.1322
 IR Inten    --     11.9571                29.2123                15.7699

                     64                     65                     66
                      A                      A                      A
 Frequencies --   3089.4296              3096.7273              3100.2968
 Red. masses --      1.1003                 1.1012                 1.0598
 Frc consts  --      6.1876                 6.2216                 6.0016
 IR Inten    --     40.4696                 9.3474                24.7661

                     67                     68                     69
                      A                      A                      A
 Frequencies --   3124.3405              3154.1032              3193.6132
 Red. masses --      1.1031                 1.1096                 1.0919
 Frc consts  --      6.3445                 6.5039                 6.5615
 IR Inten    --     15.4876                 9.4083                 1.5222

                     70                     71                     72
                      A                      A                      A
 Frequencies --   3222.3675              3231.6786              3241.3736
 Red. masses --      1.0933                 1.0943                 1.0975
 Frc consts  --      6.6886                 6.7337                 6.7936
 IR Inten    --      0.9121                 4.5962                 4.8006

 - Thermochemistry -
 -------------------
 Temperature   298.150 Kelvin.  Pressure   1.00000 Atm.
 Atom     1 has atomic number  6 and mass  12.00000

 Molecular mass:   179.09463 amu.
 Principal axes and moments of inertia in atomic units:
                           1         2         3
     Eigenvalues --  1009.726925089.943595840.55706
           X            0.99976  -0.02193   0.00247
           Y            0.02194   0.99975  -0.00333
           Z           -0.00239   0.00339   0.99999
 This molecule is an asymmetric top.
 Rotational symmetry number  1.
 Warning -- assumption of classical behavior for rotation
           may cause significant error
 Rotational temperatures (Kelvin)      0.08578     0.01702     0.01483
 Rotational constants (GHZ):           1.78736     0.35457     0.30900
 Zero-point vibrational energy     569052.1 (Joules/Mol)
                                  136.00672 (Kcal/Mol)
 Warning -- explicit consideration of  17 degrees of freedom as
           vibrations may cause significant error
 Vibrational temperatures:     33.88    58.56    80.21    93.98   127.19
          (Kelvin)            157.07   308.51   359.39   397.42   418.59
                              468.30   620.78   632.35   722.30   748.85
                              784.08   853.39   908.42   950.03  1007.38
                             1101.60  1142.63  1173.41  1264.64  1287.13
                             1325.83  1366.50  1393.26  1469.21  1474.26
                             1485.83  1528.21  1541.61  1545.46  1570.12
                             1633.56  1691.80  1734.82  1755.46  1778.62
                             1833.50  1871.71  1911.10  1944.74  1956.40
                             1976.63  2006.11  2021.63  2033.89  2078.45
                             2102.16  2109.38  2116.12  2135.64  2154.95
                             2180.75  2215.38  2343.94  2404.54  4366.86
                             4377.36  4383.76  4423.99  4445.00  4455.50
                             4460.64  4495.23  4538.05  4594.90  4636.27
                             4649.66  4663.61

 Zero-point correction=                           0.216740 (Hartree/Particle)
 Thermal correction to Energy=                    0.229362
 Thermal correction to Enthalpy=                  0.230306
 Thermal correction to Gibbs Free Energy=         0.175170
 Sum of electronic and zero-point Energies=           -594.142089
 Sum of electronic and thermal Energies=              -594.129467
 Sum of electronic and thermal Enthalpies=            -594.128523
 Sum of electronic and thermal Free Energies=         -594.183659

                     E (Thermal)             CV                S
                      KCal/Mol        Cal/Mol-Kelvin    Cal/Mol-Kelvin
 Total                  143.927             46.022            116.043
 Electronic               0.000              0.000              0.000
 Translational            0.889              2.981             41.455
 Rotational               0.889              2.981             31.774
 Vibrational            142.149             40.061             42.814
 Vibration     1          0.593              1.985              6.310
 Vibration     2          0.594              1.981              5.225
 Vibration     3          0.596              1.975              4.602
 Vibration     4          0.597              1.971              4.290
 Vibration     5          0.601              1.957              3.695
 Vibration     6          0.606              1.942              3.284
 Vibration     7          0.644              1.819              2.006
 Vibration     8          0.663              1.763              1.732
 Vibration     9          0.678              1.717              1.557
 Vibration    10          0.687              1.691              1.469
 Vibration    11          0.710              1.625              1.282
 Vibration    12          0.793              1.402              0.854
 Vibration    13          0.800              1.384              0.828
 Vibration    14          0.857              1.246              0.653
 Vibration    15          0.875              1.205              0.609
 Vibration    16          0.900              1.151              0.555
 Vibration    17          0.951              1.046              0.462

                           ! Non-Optimized Parameters !
 Normal termination of Gaussian 16 at Thu Oct 12 09:13:29 2023.
