 Gaussian 16, Revision A.03,
 Gaussian 16:  ES64L-G16RevA.03 25-Dec-2016

 -------------------------------------------------------------
 #p M062X/6-311+G(2d,p) nosymm em=GD3 scrf=(smd,solvent=water)
 -------------------------------------------------------------

 -------------------
 Title Card Required
 -------------------
 Symbolic Z-matrix:
 Charge =  0 Multiplicity = 1

                          Input orientation:
 ---------------------------------------------------------------------
 Center     Atomic      Atomic             Coordinates (Angstroms)
 Number     Number       Type             X           Y           Z
 ---------------------------------------------------------------------
      1          6           0        2.851900    0.673823    0.064687
      2          6           0        1.671924   -0.042406   -0.177155
      3          6           0        1.667535   -1.432099   -0.253968
      4          6           0        2.886274   -2.068248   -0.078872
      5          6           0        4.069471   -1.346436    0.164095
      6          6           0        4.075891    0.037530    0.240577
      7          1           0        0.755815   -1.983725   -0.440481
      8          1           0        2.930749   -3.148869   -0.130013
      9          1           0        4.998458   -1.886974    0.294928
     10          1           0        4.982866    0.597134    0.427697
     11          1           0        3.098590    2.806894    0.225627
     12          6           0        1.174867    2.104257   -0.143902
     13          1           0        0.622319    3.028030   -0.186226
     14          7           0        2.486419    2.014407    0.075408
     15          7           0        0.653831    0.896388   -0.300118
     16         15           0       -2.931215   -0.126795    0.124473
     17          8           0       -2.567173   -0.174858    1.575591
     18          8           0       -4.372331    0.598440   -0.097097
     19          1           0       -4.282701    1.558552   -0.187988
     20          8           0       -1.943526    0.465603   -0.857665
     21          1           0       -0.365456    0.704642   -0.483355
     22          8           0       -3.324988   -1.637236   -0.302288
     23          1           0       -3.477205   -1.723439   -1.255407
 ---------------------------------------------------------------------

 SCF Done:  E(RM062X) =  -1024.05559604     A.U. after   14 cycles

 Alpha  occ. eigenvalues --  -78.13578 -19.64241 -19.63994 -19.58532 -19.57599
 Alpha  occ. eigenvalues --  -14.83604 -14.82276 -10.65902 -10.60540 -10.60300
 Alpha  occ. eigenvalues --  -10.56099 -10.56030 -10.55334 -10.55243  -6.94182
 Alpha  occ. eigenvalues --   -5.06146  -5.06055  -5.05893  -1.19770  -1.18693
 Alpha  occ. eigenvalues --   -1.13752  -1.09224  -1.06228  -1.04302  -0.97624
 Alpha  occ. eigenvalues --   -0.86765  -0.86255  -0.76665  -0.74378  -0.71988
 Alpha  occ. eigenvalues --   -0.69363  -0.65134  -0.61661  -0.60949  -0.60194
 Alpha  occ. eigenvalues --   -0.57884  -0.56636  -0.55443  -0.52683  -0.52174
 Alpha  occ. eigenvalues --   -0.52041  -0.50811  -0.49392  -0.46706  -0.44362
 Alpha  occ. eigenvalues --   -0.44263  -0.43799  -0.42959  -0.42644  -0.41913
 Alpha  occ. eigenvalues --   -0.40468  -0.38369  -0.36695  -0.35180  -0.31052
 Alpha  occ. eigenvalues --   -0.30855
 Alpha virt. eigenvalues --   -0.01777   0.00708   0.01926   0.02372   0.02535
 Alpha virt. eigenvalues --    0.03578   0.03662   0.03822   0.04098   0.04922
 Alpha virt. eigenvalues --    0.05705   0.06196   0.06313   0.08141   0.08554

 Mulliken charges:
               1
     1  C    0.592630
     2  C    0.394983
     3  C   -0.343033
     4  C   -0.336441
     5  C   -0.124476
     6  C   -0.725481
     7  H    0.193723
     8  H    0.173181
     9  H    0.173587
    10  H    0.187204
    11  H    0.404289
    12  C    0.263454
    13  H    0.232472
    14  N   -0.315509
    15  N   -0.359548
    16  P    1.394829
    17  O   -0.869538
    18  O   -0.644058
    19  H    0.364102
    20  O   -0.900943
    21  H    0.495023
    22  O   -0.604350
    23  H    0.353901
 Sum of Mulliken charges =  -0.00000

 Dipole moment (field-independent basis, Debye):
    X=             16.0966    Y=              7.8097    Z=             -4.6646  Tot=             18.4892
 Quadrupole moment (field-independent basis, Debye-Ang):
   XX=            -81.9392   YY=            -57.0846   ZZ=           -100.2788
   XY=              4.8387   XZ=             17.9054   YZ=              6.1075

 Normal termination of Gaussian 16 at Mon Dec 12 20:03:51 2022.
