 Gaussian 16, Revision A.03,
 Gaussian 16:  ES64L-G16RevA.03 25-Dec-2016

 -------------------------------------------------------------
 #p M062X/6-311+G(2d,p) nosymm em=GD3 scrf=(smd,solvent=water)
 -------------------------------------------------------------

 -------------------
 Title Card Required
 -------------------
 Symbolic Z-matrix:
 Charge =  0 Multiplicity = 1

                          Input orientation:
 ---------------------------------------------------------------------
 Center     Atomic      Atomic             Coordinates (Angstroms)
 Number     Number       Type             X           Y           Z
 ---------------------------------------------------------------------
      1          6           0        2.851900    0.673823    0.064687
      2          6           0        1.671924   -0.042406   -0.177155
      3          6           0        1.667535   -1.432099   -0.253968
      4          6           0        2.886274   -2.068248   -0.078872
      5          6           0        4.069471   -1.346436    0.164095
      6          6           0        4.075891    0.037530    0.240577
      7          1           0        0.755815   -1.983725   -0.440481
      8          1           0        2.930749   -3.148869   -0.130013
      9          1           0        4.998458   -1.886974    0.294928
     10          1           0        4.982866    0.597134    0.427697
     11          1           0        3.098590    2.806894    0.225627
     12          6           0        1.174867    2.104257   -0.143902
     13          1           0        0.622319    3.028030   -0.186226
     14          7           0        2.486419    2.014407    0.075408
     15          7           0        0.653831    0.896388   -0.300118
 ---------------------------------------------------------------------

 SCF Done:  E(RM062X) =  -379.835437419     A.U. after   14 cycles

 Alpha  occ. eigenvalues --  -14.80030 -14.73420 -10.60831 -10.57970 -10.56616
 Alpha  occ. eigenvalues --  -10.54748 -10.54389 -10.54094 -10.53969  -1.13851
 Alpha  occ. eigenvalues --   -0.97922  -0.95456  -0.84677  -0.83753  -0.72127
 Alpha  occ. eigenvalues --   -0.69899  -0.68264  -0.62589  -0.57528  -0.55546
 Alpha  occ. eigenvalues --   -0.52778  -0.51267  -0.50800  -0.48326  -0.42822
 Alpha  occ. eigenvalues --   -0.42162  -0.42052  -0.37234  -0.34449  -0.29165
 Alpha  occ. eigenvalues --   -0.28195
 Alpha virt. eigenvalues --    0.00116   0.01725   0.02860   0.03399   0.04033
 Alpha virt. eigenvalues --    0.04815   0.05015   0.05603   0.06014   0.06913
 Alpha virt. eigenvalues --    0.07678   0.08998   0.09556   0.09705   0.10751

 Mulliken charges:
               1
     1  C    0.505750
     2  C    0.528637
     3  C   -0.500986
     4  C   -0.211728
     5  C   -0.235465
     6  C   -0.688424
     7  H    0.172664
     8  H    0.163023
     9  H    0.163984
    10  H    0.175446
    11  H    0.359692
    12  C    0.178711
    13  H    0.197019
    14  N   -0.313055
    15  N   -0.495268
 Sum of Mulliken charges =  -0.00000

 Dipole moment (field-independent basis, Debye):
    X=              3.9120    Y=              3.6038    Z=              0.8775  Tot=              5.3908
 Quadrupole moment (field-independent basis, Debye-Ang):
   XX=            -35.2731   YY=            -31.9719   ZZ=            -57.0255
   XY=             10.9368   XZ=              2.5718   YZ=              1.6095

 Normal termination of Gaussian 16 at Mon Dec 12 20:11:58 2022.
