 Gaussian 16, Revision A.03,
 Gaussian 16:  ES64L-G16RevA.03 25-Dec-2016

 -------------------------------------------------------------
 #p M062X/6-311+G(2d,p) nosymm em=GD3 scrf=(smd,solvent=water)
 -------------------------------------------------------------

 -------------------
 Title Card Required
 -------------------
 Symbolic Z-matrix:
 Charge =  0 Multiplicity = 1

                          Input orientation:
 ---------------------------------------------------------------------
 Center     Atomic      Atomic             Coordinates (Angstroms)
 Number     Number       Type             X           Y           Z
 ---------------------------------------------------------------------
      1         15           0       -2.931215   -0.126795    0.124473
      2          8           0       -2.567173   -0.174858    1.575591
      3          8           0       -4.372331    0.598440   -0.097097
      4          1           0       -4.282701    1.558552   -0.187988
      5          8           0       -1.943526    0.465603   -0.857665
      6          1           0       -0.365456    0.704642   -0.483355
      7          8           0       -3.324988   -1.637236   -0.302288
      8          1           0       -3.477205   -1.723439   -1.255407
 ---------------------------------------------------------------------

 SCF Done:  E(RM062X) =  -644.066317483     A.U. after   13 cycles

 Alpha  occ. eigenvalues --  -78.16359 -19.66624 -19.65705 -19.65503 -19.58772
 Alpha  occ. eigenvalues --   -6.96956  -5.08874  -5.08833  -5.08704  -1.21827
 Alpha  occ. eigenvalues --   -1.15049  -1.13356  -1.08190  -0.70962  -0.62871
 Alpha  occ. eigenvalues --   -0.60008  -0.54287  -0.51857  -0.49303  -0.46352
 Alpha  occ. eigenvalues --   -0.45288  -0.44423  -0.41882  -0.38548  -0.37428
 Alpha virt. eigenvalues --   -0.09184   0.01399   0.03641   0.04010   0.05463
 Alpha virt. eigenvalues --    0.14000   0.14482   0.16042   0.16282   0.17922
 Alpha virt. eigenvalues --    0.18568   0.19079   0.19797   0.20636   0.22063

 Mulliken charges:
               1
     1  P    1.466118
     2  O   -0.866937
     3  O   -0.615156
     4  H    0.370353
     5  O   -0.751564
     6  H    0.642791
     7  O   -0.604353
     8  H    0.358748
 Sum of Mulliken charges =  -0.00000

 Dipole moment (field-independent basis, Debye):
    X=              4.7070    Y=              3.5336    Z=             -6.3239  Tot=              8.6391
 Quadrupole moment (field-independent basis, Debye-Ang):
   XX=            -48.4234   YY=            -31.7859   ZZ=            -43.2830
   XY=             -7.8179   XZ=             16.5637   YZ=              4.0567

 Normal termination of Gaussian 16 at Mon Dec 12 20:15:40 2022.
