 Gaussian 16, Revision A.03,
 Gaussian 16:  ES64L-G16RevA.03 25-Dec-2016

 ----------------------------------------
 #p opt freq b3lyp/6-311+g(2d,p) em=gd3bj
 ----------------------------------------

 -------------------
 Title Card Required
 -------------------
 Symbolic Z-matrix:
 Charge =  0 Multiplicity = 1

 SCF Done:  E(RB3LYP) =  -572.226290537     A.U. after   15 cycles
 SCF Done:  E(RB3LYP) =  -572.211945792     A.U. after   12 cycles
 SCF Done:  E(RB3LYP) =  -572.224751090     A.U. after   12 cycles
 SCF Done:  E(RB3LYP) =  -572.226296137     A.U. after    7 cycles
 SCF Done:  E(RB3LYP) =  -572.225978049     A.U. after   11 cycles
 SCF Done:  E(RB3LYP) =  -572.226101215     A.U. after   11 cycles
 SCF Done:  E(RB3LYP) =  -572.226317292     A.U. after    6 cycles
 SCF Done:  E(RB3LYP) =  -572.226237377     A.U. after   11 cycles
 SCF Done:  E(RB3LYP) =  -572.226333184     A.U. after   11 cycles
 SCF Done:  E(RB3LYP) =  -572.226336849     A.U. after    9 cycles
 SCF Done:  E(RB3LYP) =  -572.226337541     A.U. after    7 cycles
 SCF Done:  E(RB3LYP) =  -572.226337731     A.U. after    8 cycles
 SCF Done:  E(RB3LYP) =  -572.226337817     A.U. after    7 cycles
 SCF Done:  E(RB3LYP) =  -572.226337908     A.U. after    7 cycles
 SCF Done:  E(RB3LYP) =  -572.226338020     A.U. after    7 cycles
 SCF Done:  E(RB3LYP) =  -572.226338117     A.U. after    7 cycles
 SCF Done:  E(RB3LYP) =  -572.226338220     A.U. after    7 cycles
 SCF Done:  E(RB3LYP) =  -572.226338293     A.U. after    7 cycles
 SCF Done:  E(RB3LYP) =  -572.226338310     A.U. after    6 cycles
 Optimization completed.
    -- Stationary point found.
 Normal termination of Gaussian 16 at Wed Oct 11 20:39:41 2023.

 ----------------------------------------------------------------------
 #P Geom=AllCheck Guess=TCheck SCRF=Check GenChk RB3LYP/6-311+G(2d,p) F
 req
 ----------------------------------------------------------------------

 Structure from the checkpoint file:  "/data0/home/software/g16/scratch/Gau-2527976.chk"
 -------------------
 Title Card Required
 -------------------
 Charge =  0 Multiplicity = 1

                         Standard orientation:
 ---------------------------------------------------------------------
 Center     Atomic      Atomic             Coordinates (Angstroms)
 Number     Number       Type             X           Y           Z
 ---------------------------------------------------------------------
      1          6           0        2.280261    0.992161   -0.500051
      2          6           0        1.212106    1.795567   -0.274616
      3          6           0        0.828608   -0.134699    0.729553
      4          7           0        2.027440   -0.203095    0.149554
      5          1           0        3.189366    1.164927   -1.047163
      6          1           0        1.012783    2.804245   -0.588326
      7          1           0        0.287209   -0.946520    1.215076
      8          6           0        2.746551   -1.458666   -0.039183
      9          1           0        2.752345   -2.015848    0.894935
     10          1           0        2.231190   -2.038728   -0.805230
     11          1           0        3.769560   -1.240870   -0.337528
     12          7           0        0.319996    1.079305    0.504949
     13          6           0       -1.074292    1.481869    0.769027
     14          1           0       -1.045517    2.544198    1.011981
     15          1           0       -1.407357    0.930475    1.646988
     16          6           0       -1.997392    1.213395   -0.435815
     17          1           0       -2.809558    1.944166   -0.390280
     18          1           0       -1.435188    1.416991   -1.350164
     19          6           0       -2.582385   -0.209421   -0.491258
     20          1           0       -3.007845   -0.375681   -1.482323
     21          1           0       -3.370523   -0.315843    0.255660
     22          6           0       -1.470151   -1.234993   -0.201361
     23          8           0       -1.448244   -1.713160    0.963853
     24          8           0       -0.584050   -1.371372   -1.081720
 ---------------------------------------------------------------------

 SCF Done:  E(RB3LYP) =  -572.226338310     A.U. after    1 cycles

 The electronic state is 1-A.
 Alpha  occ. eigenvalues --  -19.03003 -19.02972 -14.41928 -14.41577 -10.27528
 Alpha  occ. eigenvalues --  -10.24788 -10.24611 -10.23877 -10.23603 -10.21848
 Alpha  occ. eigenvalues --  -10.17909 -10.14285  -1.09211  -0.99577  -0.97506
 Alpha  occ. eigenvalues --   -0.90438  -0.82996  -0.80001  -0.76240  -0.71072
 Alpha  occ. eigenvalues --   -0.66636  -0.63754  -0.61410  -0.57495  -0.52437
 Alpha  occ. eigenvalues --   -0.50984  -0.49584  -0.49051  -0.48105  -0.47647
 Alpha  occ. eigenvalues --   -0.45904  -0.44562  -0.43712  -0.42140  -0.40965
 Alpha  occ. eigenvalues --   -0.38362  -0.37524  -0.37168  -0.33702  -0.33381
 Alpha  occ. eigenvalues --   -0.31639  -0.28443  -0.22460  -0.20765  -0.20117
 Alpha virt. eigenvalues --   -0.03552  -0.02228  -0.01332  -0.00416   0.00846
 Alpha virt. eigenvalues --    0.01677   0.02671   0.03276   0.03537   0.04602
 Alpha virt. eigenvalues --    0.05177   0.05689   0.06436   0.06890   0.07466

 Mulliken charges:
               1
     1  C   -0.050376
     2  C   -0.092187
     3  C   -0.408859
     4  N    0.169095
     5  H    0.121585
     6  H    0.123924
     7  H    0.254648
     8  C   -0.274181
     9  H    0.154333
    10  H    0.205975
    11  H    0.128236
    12  N    0.230845
    13  C   -0.298741
    14  H    0.125048
    15  H    0.171632
    16  C   -0.013770
    17  H    0.102903
    18  H    0.114093
    19  C   -0.330573
    20  H    0.115677
    21  H    0.124287
    22  C    0.521098
    23  O   -0.626806
    24  O   -0.567885
 Sum of Mulliken charges =   0.00000

 Dipole moment (field-independent basis, Debye):
    X=              5.9028    Y=              6.3337    Z=              0.4599  Tot=              8.6701
 Quadrupole moment (field-independent basis, Debye-Ang):
   XX=            -59.8327   YY=            -73.4007   ZZ=            -76.5559
   XY=            -10.3459   XZ=             -0.2365   YZ=             -0.4241

  Exact polarizability: 132.724  -6.589 115.193  -6.304  -4.882  93.180
 Approx polarizability: 179.703  -9.888 170.523 -17.615 -12.022 156.212

                      1                      2                      3
                      A                      A                      A
 Frequencies --     58.9221                66.8359                86.6099
 Red. masses --      1.9589                 3.4693                 2.0722
 Frc consts  --      0.0040                 0.0091                 0.0092
 IR Inten    --      6.8249                 3.2641                 2.9502

                      4                      5                      6
                      A                      A                      A
 Frequencies --     92.3646               131.9360               191.3487
 Red. masses --      2.3050                11.2294                 5.8809
 Frc consts  --      0.0116                 0.1152                 0.1269
 IR Inten    --      6.0230                 5.5506                40.1979

                      7                      8                      9
                      A                      A                      A
 Frequencies --    198.4115               252.2745               279.3139
 Red. masses --      2.6355                 4.7574                 2.7955
 Frc consts  --      0.0611                 0.1784                 0.1285
 IR Inten    --      3.0122                12.9951                 2.4969

                     10                     11                     12
                      A                      A                      A
 Frequencies --    339.0260               419.0856               441.2913
 Red. masses --      3.2978                 2.3572                 2.6198
 Frc consts  --      0.2233                 0.2439                 0.3006
 IR Inten    --      3.8574                 0.8002                 0.9966

                     13                     14                     15
                      A                      A                      A
 Frequencies --    454.1743               597.2511               621.6498
 Red. masses --      2.8656                 3.2852                 4.4209
 Frc consts  --      0.3483                 0.6904                 1.0066
 IR Inten    --      3.8551                 0.0980                36.3614

                     16                     17                     18
                      A                      A                      A
 Frequencies --    639.8782               661.9282               715.5496
 Red. masses --      4.1013                 3.2662                 3.6625
 Frc consts  --      0.9894                 0.8432                 1.1049
 IR Inten    --      1.8643                49.1139                 2.9715

                     19                     20                     21
                      A                      A                      A
 Frequencies --    721.7009               773.1806               825.5714
 Red. masses --      1.3016                 3.6133                 2.3184
 Frc consts  --      0.3994                 1.2727                 0.9310
 IR Inten    --     36.0386                 2.7970                10.4717

                     22                     23                     24
                      A                      A                      A
 Frequencies --    832.1843               888.3993               899.4401
 Red. masses --      1.5303                 3.3104                 1.8829
 Frc consts  --      0.6244                 1.5394                 0.8975
 IR Inten    --      4.3120                19.4549                15.1203

                     25                     26                     27
                      A                      A                      A
 Frequencies --    944.8253               999.4004              1038.9940
 Red. masses --      1.3508                 2.6055                 2.3600
 Frc consts  --      0.7105                 1.5333                 1.5010
 IR Inten    --     36.5734                 4.4739                 0.2454

                     28                     29                     30
                      A                      A                      A
 Frequencies --   1043.1145              1053.5479              1063.7847
 Red. masses --      2.8019                 2.5996                 2.2933
 Frc consts  --      1.7962                 1.7001                 1.5291
 IR Inten    --      7.5261                 4.4022                 3.2230

                     31                     32                     33
                      A                      A                      A
 Frequencies --   1108.0216              1117.9330              1151.2217
 Red. masses --      1.4626                 1.3497                 1.3318
 Frc consts  --      1.0580                 0.9938                 1.0399
 IR Inten    --      9.8715                 5.6557                 0.8351

                     34                     35                     36
                      A                      A                      A
 Frequencies --   1165.6395              1198.9521              1234.1159
 Red. masses --      1.4783                 1.5600                 1.3218
 Frc consts  --      1.1834                 1.3212                 1.1861
 IR Inten    --     31.9725                72.7230                 1.4126

                     37                     38                     39
                      A                      A                      A
 Frequencies --   1259.8632              1317.6212              1333.3534
 Red. masses --      1.3330                 1.3560                 1.4706
 Frc consts  --      1.2466                 1.3870                 1.5404
 IR Inten    --      4.1356                12.3239                 4.5303

                     40                     41                     42
                      A                      A                      A
 Frequencies --   1351.5688              1358.3227              1383.2008
 Red. masses --      1.7806                 4.2636                 1.6230
 Frc consts  --      1.9165                 4.6348                 1.8296
 IR Inten    --     25.9516                 1.6638                 2.5422

                     43                     44                     45
                      A                      A                      A
 Frequencies --   1399.1769              1405.9212              1451.3383
 Red. masses --      2.2589                 2.8858                 1.6681
 Frc consts  --      2.6055                 3.3608                 2.0702
 IR Inten    --     57.1444                63.0406                 8.8304

                     46                     47                     48
                      A                      A                      A
 Frequencies --   1453.9944              1474.3034              1485.0672
 Red. masses --      1.7126                 1.1041                 1.0563
 Frc consts  --      2.1332                 1.4139                 1.3725
 IR Inten    --     16.9298                 5.1441                 7.5639

                     49                     50                     51
                      A                      A                      A
 Frequencies --   1485.6732              1490.2381              1515.6751
 Red. masses --      1.1019                 1.1252                 1.1228
 Frc consts  --      1.4329                 1.4723                 1.5197
 IR Inten    --      9.9672                24.9194                19.2964

                     52                     53                     54
                      A                      A                      A
 Frequencies --   1584.2296              1598.9919              1620.9526
 Red. masses --      3.7807                 4.0884                 5.8108
 Frc consts  --      5.5906                 6.1588                 8.9955
 IR Inten    --    136.9941                35.2977               293.3626

                     55                     56                     57
                      A                      A                      A
 Frequencies --   3029.8794              3047.5939              3057.8142
 Red. masses --      1.0615                 1.0593                 1.0368
 Frc consts  --      5.7412                 5.7965                 5.7117
 IR Inten    --     23.0383                31.9893                19.3692

                     58                     59                     60
                      A                      A                      A
 Frequencies --   3061.3414              3063.7040              3074.3812
 Red. masses --      1.1076                 1.0832                 1.0821
 Frc consts  --      6.1158                 5.9905                 6.0262
 IR Inten    --    175.0402                72.5178                33.2024

                     61                     62                     63
                      A                      A                      A
 Frequencies --   3097.1594              3124.5057              3135.7172
 Red. masses --      1.1066                 1.1051                 1.1045
 Frc consts  --      6.2540                 6.3567                 6.3988
 IR Inten    --     34.0090                 2.5305                 1.4319

                     64                     65                     66
                      A                      A                      A
 Frequencies --   3152.7768              3274.7074              3292.4776
 Red. masses --      1.1063                 1.0921                 1.1087
 Frc consts  --      6.4788                 6.9001                 7.0812
 IR Inten    --      4.2305                 4.6194                 1.5349

 - Thermochemistry -
 -------------------
 Temperature   298.150 Kelvin.  Pressure   1.00000 Atm.
 Atom     1 has atomic number  6 and mass  12.00000

 Molecular mass:   168.08988 amu.
 Principal axes and moments of inertia in atomic units:
                           1         2         3
     Eigenvalues --  1207.994182109.787432795.99118
           X            0.99755  -0.06991  -0.00173
           Y            0.06989   0.99751  -0.00947
           Z            0.00239   0.00933   0.99995
 This molecule is an asymmetric top.
 Rotational symmetry number  1.
 Warning -- assumption of classical behavior for rotation
           may cause significant error
 Rotational temperatures (Kelvin)      0.07170     0.04105     0.03098
 Rotational constants (GHZ):           1.49400     0.85541     0.64547
 Zero-point vibrational energy     524499.3 (Joules/Mol)
                                  125.35833 (Kcal/Mol)
 Warning -- explicit consideration of  14 degrees of freedom as
           vibrations may cause significant error
 Vibrational temperatures:     84.78    96.16   124.61   132.89   189.83
          (Kelvin)            275.31   285.47   362.97   401.87   487.78
                              602.97   634.92   653.46   859.31   894.42
                              920.64   952.37  1029.52  1038.37  1112.43
                             1187.81  1197.33  1278.21  1294.09  1359.39
                             1437.91  1494.88  1500.81  1515.82  1530.55
                             1594.20  1608.46  1656.35  1677.10  1725.02
                             1775.62  1812.66  1895.76  1918.40  1944.61
                             1954.32  1990.12  2013.10  2022.81  2088.15
                             2091.97  2121.19  2136.68  2137.55  2144.12
                             2180.72  2279.35  2300.59  2332.19  4359.32
                             4384.81  4399.51  4404.59  4407.99  4423.35
                             4456.12  4495.47  4511.60  4536.14  4711.57
                             4737.14

 Zero-point correction=                           0.199771 (Hartree/Particle)
 Thermal correction to Energy=                    0.211240
 Thermal correction to Enthalpy=                  0.212184
 Thermal correction to Gibbs Free Energy=         0.161767
 Sum of electronic and zero-point Energies=           -572.026567
 Sum of electronic and thermal Energies=              -572.015098
 Sum of electronic and thermal Enthalpies=            -572.014154
 Sum of electronic and thermal Free Energies=         -572.064571

                     E (Thermal)             CV                S
                      KCal/Mol        Cal/Mol-Kelvin    Cal/Mol-Kelvin
 Total                  132.555             42.299            106.111
 Electronic               0.000              0.000              0.000
 Translational            0.889              2.981             41.266
 Rotational               0.889              2.981             30.345
 Vibrational            130.778             36.337             34.501
 Vibration     1          0.596              1.974              4.493
 Vibration     2          0.598              1.970              4.244
 Vibration     3          0.601              1.959              3.735
 Vibration     4          0.602              1.955              3.609
 Vibration     5          0.612              1.921              2.918
 Vibration     6          0.634              1.852              2.215
 Vibration     7          0.637              1.842              2.148
 Vibration     8          0.664              1.759              1.715
 Vibration     9          0.680              1.712              1.538
 Vibration    10          0.719              1.598              1.217
 Vibration    11          0.782              1.429              0.895
 Vibration    12          0.801              1.380              0.823
 Vibration    13          0.813              1.352              0.783
 Vibration    14          0.955              1.038              0.454

 Optimization completed.
    -- Stationary point found.
 Normal termination of Gaussian 16 at Wed Oct 11 20:45:44 2023.
