 Gaussian 16, Revision A.03,
 Gaussian 16:  ES64L-G16RevA.03 25-Dec-2016

 ---------------
 #p M052X/6-31G*
 ---------------

 -------------------
 Title Card Required
 -------------------
 Symbolic Z-matrix:
 Charge =  0 Multiplicity = 1

                         Standard orientation:
 ---------------------------------------------------------------------
 Center     Atomic      Atomic             Coordinates (Angstroms)
 Number     Number       Type             X           Y           Z
 ---------------------------------------------------------------------
      1          6           0        2.280261    0.992161   -0.500051
      2          6           0        1.212106    1.795567   -0.274616
      3          6           0        0.828608   -0.134699    0.729553
      4          7           0        2.027440   -0.203095    0.149554
      5          1           0        3.189366    1.164927   -1.047163
      6          1           0        1.012783    2.804245   -0.588326
      7          1           0        0.287209   -0.946520    1.215076
      8          6           0        2.746551   -1.458666   -0.039183
      9          1           0        2.752345   -2.015848    0.894935
     10          1           0        2.231190   -2.038728   -0.805230
     11          1           0        3.769560   -1.240870   -0.337528
     12          7           0        0.319996    1.079305    0.504949
     13          6           0       -1.074292    1.481869    0.769027
     14          1           0       -1.045517    2.544198    1.011981
     15          1           0       -1.407357    0.930475    1.646988
     16          6           0       -1.997392    1.213395   -0.435815
     17          1           0       -2.809558    1.944166   -0.390280
     18          1           0       -1.435188    1.416991   -1.350164
     19          6           0       -2.582385   -0.209421   -0.491258
     20          1           0       -3.007845   -0.375681   -1.482323
     21          1           0       -3.370523   -0.315843    0.255660
     22          6           0       -1.470151   -1.234993   -0.201361
     23          8           0       -1.448244   -1.713160    0.963853
     24          8           0       -0.584050   -1.371372   -1.081720
 ---------------------------------------------------------------------

 SCF Done:  E(RM052X) =  -571.928198958     A.U. after   15 cycles

 The electronic state is 1-A.
 Alpha  occ. eigenvalues --  -19.56803 -19.56724 -14.90675 -14.90315 -10.68066
 Alpha  occ. eigenvalues --  -10.65130 -10.64928 -10.63930 -10.63602 -10.61023
 Alpha  occ. eigenvalues --  -10.57603 -10.53426  -1.21008  -1.09530  -1.08261
 Alpha  occ. eigenvalues --   -0.99161  -0.93191  -0.90048  -0.85871  -0.80179
 Alpha  occ. eigenvalues --   -0.75115  -0.72003  -0.69578  -0.65250  -0.60115
 Alpha  occ. eigenvalues --   -0.57998  -0.56599  -0.55786  -0.54848  -0.54263
 Alpha  occ. eigenvalues --   -0.52506  -0.51257  -0.50229  -0.48473  -0.47185
 Alpha  occ. eigenvalues --   -0.44185  -0.43336  -0.42926  -0.39181  -0.38736
 Alpha  occ. eigenvalues --   -0.36753  -0.33145  -0.26458  -0.25267  -0.25117
 Alpha virt. eigenvalues --    0.03056   0.04625   0.12381   0.13000   0.14758
 Alpha virt. eigenvalues --    0.16168   0.17457   0.17852   0.18393   0.19154
 Alpha virt. eigenvalues --    0.19511   0.20659   0.22148   0.23219   0.24072

 Mulliken charges:
               1
     1  C    0.001065
     2  C   -0.005992
     3  C    0.304597
     4  N   -0.444570
     5  H    0.226892
     6  H    0.227581
     7  H    0.335087
     8  C   -0.367686
     9  H    0.217928
    10  H    0.263553
    11  H    0.193783
    12  N   -0.437762
    13  C   -0.227855
    14  H    0.188808
    15  H    0.239325
    16  C   -0.330923
    17  H    0.170810
    18  H    0.184174
    19  C   -0.354713
    20  H    0.169930
    21  H    0.164099
    22  C    0.516543
    23  O   -0.621674
    24  O   -0.613000
 Sum of Mulliken charges =  -0.00000

 Dipole moment (field-independent basis, Debye):
    X=              6.2008    Y=              6.3318    Z=              0.4986  Tot=              8.8764
 Quadrupole moment (field-independent basis, Debye-Ang):
   XX=            -57.8586   YY=            -70.5955   ZZ=            -74.2772
   XY=            -10.2650   XZ=             -0.5822   YZ=             -0.6720

 Normal termination of Gaussian 16 at Wed Oct 11 21:02:59 2023.
