 Gaussian 16, Revision A.03,
 Gaussian 16:  ES64L-G16RevA.03 25-Dec-2016

 --------------------------------------
 #p opt freq b3lyp/6-311g(d,p) em=gd3bj
 --------------------------------------

 -------------------
 Title Card Required
 -------------------
 Symbolic Z-matrix:
 Charge =  0 Multiplicity = 1

 SCF Done:  E(RB3LYP) =  -572.106345680     A.U. after   26 cycles
 SCF Done:  E(RB3LYP) =  -572.136841876     A.U. after   18 cycles
 SCF Done:  E(RB3LYP) =  -572.146775067     A.U. after   16 cycles
 SCF Done:  E(RB3LYP) =  -572.138777223     A.U. after   15 cycles
 SCF Done:  E(RB3LYP) =  -572.158430538     A.U. after   13 cycles
 SCF Done:  E(RB3LYP) =  -572.169359708     A.U. after   13 cycles
 SCF Done:  E(RB3LYP) =  -572.124858031     A.U. after   15 cycles
 SCF Done:  E(RB3LYP) =  -572.178036843     A.U. after   14 cycles
 SCF Done:  E(RB3LYP) =  -572.184551800     A.U. after   13 cycles
 SCF Done:  E(RB3LYP) =  -572.190487031     A.U. after   14 cycles
 SCF Done:  E(RB3LYP) =  -572.200118725     A.U. after   11 cycles
 SCF Done:  E(RB3LYP) =  -572.200142627     A.U. after   10 cycles
 SCF Done:  E(RB3LYP) =  -572.200152587     A.U. after   11 cycles
 SCF Done:  E(RB3LYP) =  -572.200152384     A.U. after   10 cycles
 SCF Done:  E(RB3LYP) =  -572.200162576     A.U. after   10 cycles
 SCF Done:  E(RB3LYP) =  -572.200163158     A.U. after    8 cycles
 SCF Done:  E(RB3LYP) =  -572.200163968     A.U. after    7 cycles
 SCF Done:  E(RB3LYP) =  -572.200164848     A.U. after    8 cycles
 SCF Done:  E(RB3LYP) =  -572.200164942     A.U. after    7 cycles
 Optimization completed.
    -- Stationary point found.
 Normal termination of Gaussian 16 at Wed May 18 10:45:25 2022.

 ----------------------------------------------------------------------
 #P Geom=AllCheck Guess=TCheck SCRF=Check GenChk RB3LYP/6-311G(d,p) Fre
 q
 ----------------------------------------------------------------------

 Structure from the checkpoint file:  "MImBA.chk"
 -------------------
 Title Card Required
 -------------------
 Charge =  0 Multiplicity = 1

                         Standard orientation:
 ---------------------------------------------------------------------
 Center     Atomic      Atomic             Coordinates (Angstroms)
 Number     Number       Type             X           Y           Z
 ---------------------------------------------------------------------
      1          6           0        2.279547   -0.998250    0.489859
      2          6           0        1.214195   -1.806570    0.256518
      3          6           0        0.823474    0.132310   -0.738317
      4          7           0        2.022586    0.202289   -0.154224
      5          1           0        3.189823   -1.169674    1.036239
      6          1           0        1.016970   -2.818455    0.562486
      7          1           0        0.270498    0.944839   -1.215586
      8          6           0        2.698820    1.479583    0.072252
      9          1           0        2.917237    1.957888   -0.881812
     10          1           0        2.023552    2.104283    0.660507
     11          1           0        3.628171    1.297308    0.607965
     12          7           0        0.318144   -1.087037   -0.521309
     13          6           0       -1.089759   -1.471186   -0.756231
     14          1           0       -1.083366   -2.531550   -1.012572
     15          1           0       -1.437732   -0.897520   -1.614611
     16          6           0       -1.975540   -1.197238    0.481045
     17          1           0       -2.782743   -1.935952    0.477048
     18          1           0       -1.375699   -1.379930    1.376579
     19          6           0       -2.565346    0.226929    0.545148
     20          1           0       -2.942261    0.406026    1.554267
     21          1           0       -3.386557    0.323736   -0.167851
     22          6           0       -1.454582    1.234425    0.180859
     23          8           0       -1.453976    1.634547   -1.013883
     24          8           0       -0.547006    1.401979    1.033793
 ---------------------------------------------------------------------

 SCF Done:  E(RB3LYP) =  -572.200164942     A.U. after    1 cycles

 The electronic state is 1-A.
 Alpha  occ. eigenvalues --  -19.01813 -19.01759 -14.41328 -14.41029 -10.26924
 Alpha  occ. eigenvalues --  -10.24427 -10.24202 -10.23431 -10.23206 -10.21186
 Alpha  occ. eigenvalues --  -10.17647 -10.13919  -1.08526  -0.98926  -0.96849
 Alpha  occ. eigenvalues --   -0.89781  -0.82426  -0.79434  -0.75654  -0.70563
 Alpha  occ. eigenvalues --   -0.66043  -0.63218  -0.60843  -0.56968  -0.51897
 Alpha  occ. eigenvalues --   -0.50458  -0.49159  -0.48513  -0.47619  -0.47008
 Alpha  occ. eigenvalues --   -0.45317  -0.43981  -0.43276  -0.41741  -0.40298
 Alpha  occ. eigenvalues --   -0.37793  -0.36898  -0.36524  -0.33260  -0.32798
 Alpha  occ. eigenvalues --   -0.31137  -0.27889  -0.21710  -0.19959  -0.19424
 Alpha virt. eigenvalues --   -0.02570  -0.01038   0.02731   0.03576   0.05381
 Alpha virt. eigenvalues --    0.06824   0.07906   0.08349   0.09368   0.10141
 Alpha virt. eigenvalues --    0.10710   0.11517   0.12667   0.12910   0.13850

 Mulliken charges:
               1
     1  C    0.032144
     2  C    0.011887
     3  C    0.291440
     4  N   -0.311224
     5  H    0.134499
     6  H    0.131562
     7  H    0.204001
     8  C   -0.159885
     9  H    0.138916
    10  H    0.181829
    11  H    0.117406
    12  N   -0.300100
    13  C   -0.131945
    14  H    0.128278
    15  H    0.168717
    16  C   -0.224889
    17  H    0.114896
    18  H    0.122141
    19  C   -0.178060
    20  H    0.109266
    21  H    0.107671
    22  C    0.257462
    23  O   -0.476516
    24  O   -0.469497
 Sum of Mulliken charges =  -0.00000

 Dipole moment (field-independent basis, Debye):
    X=              5.6978    Y=             -5.8531    Z=             -0.1727  Tot=              8.1702
 Quadrupole moment (field-independent basis, Debye-Ang):
   XX=            -60.1890   YY=            -71.4621   ZZ=            -75.5451
   XY=              9.2771   XZ=              0.3730   YZ=             -0.3565

  Exact polarizability: 124.250   7.172 103.321   5.721  -4.504  82.289
 Approx polarizability: 168.949  10.004 155.400  17.828 -10.942 141.008

                      1                      2                      3
                      A                      A                      A
 Frequencies --     71.4199                81.6867                96.4746
 Red. masses --      4.4588                 3.2271                 2.6540
 Frc consts  --      0.0134                 0.0127                 0.0146
 IR Inten    --      8.4648                 5.3412                 3.3030

                      4                      5                      6
                      A                      A                      A
 Frequencies --    107.4044               143.8272               198.9208
 Red. masses --      1.2696                10.7388                 2.5194
 Frc consts  --      0.0086                 0.1309                 0.0587
 IR Inten    --      1.4190                 6.5735                 2.9066

                      7                      8                      9
                      A                      A                      A
 Frequencies --    203.4245               262.1838               281.4753
 Red. masses --      5.8879                 4.8280                 2.7819
 Frc consts  --      0.1436                 0.1955                 0.1299
 IR Inten    --     33.8983                13.6019                 3.1508

                     10                     11                     12
                      A                      A                      A
 Frequencies --    345.5021               420.9115               441.6068
 Red. masses --      3.4105                 2.3899                 2.7360
 Frc consts  --      0.2399                 0.2495                 0.3144
 IR Inten    --      4.6376                 1.3450                 0.8060

                     13                     14                     15
                      A                      A                      A
 Frequencies --    455.7953               599.0244               627.8447
 Red. masses --      2.7107                 3.3058                 4.0257
 Frc consts  --      0.3318                 0.6989                 0.9350
 IR Inten    --      3.4985                 0.2756                36.9863

                     16                     17                     18
                      A                      A                      A
 Frequencies --    642.8452               666.5086               717.2568
 Red. masses --      4.5541                 3.5603                 3.2509
 Frc consts  --      1.1088                 0.9319                 0.9854
 IR Inten    --      0.7134                57.4261                 3.4865

                     19                     20                     21
                      A                      A                      A
 Frequencies --    723.5235               778.3723               825.5311
 Red. masses --      1.3819                 3.5237                 2.4226
 Frc consts  --      0.4262                 1.2578                 0.9728
 IR Inten    --     33.6694                 3.5975                11.2935

                     22                     23                     24
                      A                      A                      A
 Frequencies --    834.9829               889.0869               900.9066
 Red. masses --      1.4288                 3.5706                 1.9867
 Frc consts  --      0.5869                 1.6630                 0.9500
 IR Inten    --      3.2576                24.2901                13.4687

                     25                     26                     27
                      A                      A                      A
 Frequencies --    967.1856              1009.5629              1037.4287
 Red. masses --      1.5715                 1.9076                 2.2920
 Frc consts  --      0.8661                 1.1455                 1.4534
 IR Inten    --     31.9614                17.7393                 1.1936

                     28                     29                     30
                      A                      A                      A
 Frequencies --   1041.2525              1050.6638              1060.9283
 Red. masses --      2.8789                 2.3339                 2.4538
 Frc consts  --      1.8390                 1.5179                 1.6273
 IR Inten    --      6.6453                 5.4687                 1.6985

                     31                     32                     33
                      A                      A                      A
 Frequencies --   1108.7216              1117.7550              1154.2693
 Red. masses --      1.4014                 1.3891                 1.3218
 Frc consts  --      1.0149                 1.0226                 1.0376
 IR Inten    --     13.5184                 4.5725                 1.0373

                     34                     35                     36
                      A                      A                      A
 Frequencies --   1166.3057              1198.5642              1231.0093
 Red. masses --      1.4589                 1.5498                 1.3342
 Frc consts  --      1.1692                 1.3117                 1.1912
 IR Inten    --     28.9051                75.8296                 1.7285

                     37                     38                     39
                      A                      A                      A
 Frequencies --   1260.0451              1311.8126              1328.0830
 Red. masses --      1.3202                 1.3531                 1.4539
 Frc consts  --      1.2349                 1.3719                 1.5109
 IR Inten    --      5.3686                12.4207                 2.9759

                     40                     41                     42
                      A                      A                      A
 Frequencies --   1347.9441              1358.4650              1383.4272
 Red. masses --      1.6662                 4.0561                 1.7008
 Frc consts  --      1.7837                 4.4101                 1.9179
 IR Inten    --     22.8443                 1.5322                 3.2713

                     43                     44                     45
                      A                      A                      A
 Frequencies --   1400.5475              1407.7671              1447.6670
 Red. masses --      2.4480                 2.8106                 1.1934
 Frc consts  --      2.8292                 3.2818                 1.4735
 IR Inten    --     73.4452                53.8432                 7.2366

                     46                     47                     48
                      A                      A                      A
 Frequencies --   1457.8149              1473.9937              1483.7483
 Red. masses --      2.7499                 1.1293                 1.0574
 Frc consts  --      3.4432                 1.4456                 1.3715
 IR Inten    --     22.1889                 2.9396                 7.1470

                     49                     50                     51
                      A                      A                      A
 Frequencies --   1485.3279              1488.1303              1522.5072
 Red. masses --      1.1072                 1.1313                 1.1168
 Frc consts  --      1.4392                 1.4761                 1.5252
 IR Inten    --      9.8678                28.0361                13.6176

                     52                     53                     54
                      A                      A                      A
 Frequencies --   1585.1857              1599.9452              1651.0331
 Red. masses --      3.6067                 4.1167                 6.8884
 Frc consts  --      5.3398                 6.2088                11.0632
 IR Inten    --    100.2754                26.6199               283.8910

                     55                     56                     57
                      A                      A                      A
 Frequencies --   3023.1423              3031.9560              3048.8861
 Red. masses --      1.1194                 1.0610                 1.0577
 Frc consts  --      6.0277                 5.7469                 5.7929
 IR Inten    --    226.5633                26.3274                44.8751

                     58                     59                     60
                      A                      A                      A
 Frequencies --   3051.1972              3066.5949              3077.8906
 Red. masses --      1.0341                 1.0762                 1.0866
 Frc consts  --      5.6724                 5.9631                 6.0652
 IR Inten    --     25.2663                22.1624                35.9705

                     61                     62                     63
                      A                      A                      A
 Frequencies --   3101.6485              3131.0124              3131.8713
 Red. masses --      1.1070                 1.1055                 1.1051
 Frc consts  --      6.2747                 6.3850                 6.3862
 IR Inten    --     39.8499                 2.3789                 3.7583

                     64                     65                     66
                      A                      A                      A
 Frequencies --   3155.7226              3275.1359              3294.4380
 Red. masses --      1.1056                 1.0917                 1.1095
 Frc consts  --      6.4870                 6.8995                 7.0949
 IR Inten    --      5.4581                 3.9813                 0.7033

 - Thermochemistry -
 -------------------
 Temperature   298.150 Kelvin.  Pressure   1.00000 Atm.
 Atom     1 has atomic number  6 and mass  12.00000

 Molecular mass:   168.08988 amu.
 Principal axes and moments of inertia in atomic units:
                           1         2         3
     Eigenvalues --  1205.288862086.972572761.83437
           X            0.99755   0.06990   0.00128
           Y           -0.06989   0.99751  -0.00907
           Z           -0.00191   0.00896   0.99996
 This molecule is an asymmetric top.
 Rotational symmetry number  1.
 Warning -- assumption of classical behavior for rotation
           may cause significant error
 Rotational temperatures (Kelvin)      0.07186     0.04150     0.03136
 Rotational constants (GHZ):           1.49735     0.86477     0.65346
 Zero-point vibrational energy     525418.4 (Joules/Mol)
                                  125.57802 (Kcal/Mol)
 Warning -- explicit consideration of  14 degrees of freedom as
           vibrations may cause significant error
 Vibrational temperatures:    102.76   117.53   138.81   154.53   206.94
          (Kelvin)            286.20   292.68   377.22   404.98   497.10
                              605.60   635.37   655.79   861.86   903.33
                              924.91   958.96  1031.97  1040.99  1119.90
                             1187.76  1201.35  1279.20  1296.20  1391.56
                             1452.54  1492.63  1498.13  1511.67  1526.44
                             1595.20  1608.20  1660.74  1678.05  1724.47
                             1771.15  1812.92  1887.41  1910.82  1939.39
                             1954.53  1990.44  2015.08  2025.46  2082.87
                             2097.47  2120.75  2134.78  2137.06  2141.09
                             2190.55  2280.73  2301.96  2375.47  4349.63
                             4362.31  4386.67  4389.99  4412.15  4428.40
                             4462.58  4504.83  4506.06  4540.38  4712.19
                             4739.96

 Zero-point correction=                           0.200121 (Hartree/Particle)
 Thermal correction to Energy=                    0.211403
 Thermal correction to Enthalpy=                  0.212347
 Thermal correction to Gibbs Free Energy=         0.162764
 Sum of electronic and zero-point Energies=           -572.000044
 Sum of electronic and thermal Energies=              -571.988762
 Sum of electronic and thermal Enthalpies=            -571.987818
 Sum of electronic and thermal Free Energies=         -572.037401

                     E (Thermal)             CV                S
                      KCal/Mol        Cal/Mol-Kelvin    Cal/Mol-Kelvin
 Total                  132.657             42.109            104.356
 Electronic               0.000              0.000              0.000
 Translational            0.889              2.981             41.266
 Rotational               0.889              2.981             30.320
 Vibrational            130.880             36.147             32.770
 Vibration     1          0.598              1.968              4.114
 Vibration     2          0.600              1.962              3.850
 Vibration     3          0.603              1.952              3.524
 Vibration     4          0.606              1.943              3.315
 Vibration     5          0.616              1.909              2.752
 Vibration     6          0.637              1.841              2.143
 Vibration     7          0.639              1.835              2.102
 Vibration     8          0.669              1.742              1.647
 Vibration     9          0.681              1.708              1.525
 Vibration    10          0.724              1.584              1.187
 Vibration    11          0.783              1.425              0.889
 Vibration    12          0.801              1.379              0.822
 Vibration    13          0.814              1.348              0.778
 Vibration    14          0.957              1.034              0.451

 Optimization completed.
    -- Stationary point found.
 Normal termination of Gaussian 16 at Wed May 18 10:47:58 2022.
